 ## written on 16Sep2020 at 00:44:19 
  -18.105000000       4.533664104
  -18.095000000       3.499216688
  -18.085000000       2.954050094
  -18.075000000       2.604617509
  -18.065000000       2.356426549
  -18.055000000       2.168546461
  -18.045000000       2.019994768
  -18.035000000       1.898760964
  -18.025000000       1.797409936
  -18.015000000       1.711060652
  -18.005000000       1.636358880
  -17.995000000       1.570913533
  -17.985000000       1.512968076
  -17.975000000       1.461199305
  -17.965000000       1.414588975
  -17.955000000       1.372339040
  -17.945000000       1.333814004
  -17.935000000       1.298500714
  -17.925000000       1.265979659
  -17.915000000       1.235904104
  -17.905000000       1.207984627
  -17.895000000       1.181977494
  -17.885000000       1.157675794
  -17.875000000       1.134902583
  -17.865000000       1.113505532
  -17.855000000       1.093352692
  -17.845000000       1.074329122
  -17.835000000       1.056334171
  -17.825000000       1.039279277
  -17.815000000       1.023086160
  -17.805000000       1.007685337
  -17.795000000       0.993014897
  -17.785000000       0.979019469
  -17.775000000       0.965649359
  -17.765000000       0.952859828
  -17.755000000       0.940610473
  -17.745000000       0.928864703
  -17.735000000       0.917589285
  -17.725000000       0.906753965
  -17.715000000       0.896331129
  -17.705000000       0.886295514
  -17.695000000       0.876623963
  -17.685000000       0.867295196
  -17.675000000       0.858289627
  -17.665000000       0.849589190
  -17.655000000       0.841177193
  -17.645000000       0.833038187
  -17.635000000       0.825157848
  -17.625000000       0.817522874
  -17.615000000       0.810120895
  -17.605000000       0.802940392
  -17.595000000       0.795970617
  -17.585000000       0.789201538
  -17.575000000       0.782623768
  -17.565000000       0.776228522
  -17.555000000       0.770007564
  -17.545000000       0.763953162
  -17.535000000       0.758058054
  -17.525000000       0.752315410
  -17.515000000       0.746718796
  -17.505000000       0.741262151
  -17.495000000       0.735939756
  -17.485000000       0.730746211
  -17.475000000       0.725676412
  -17.465000000       0.720725531
  -17.455000000       0.715888995
  -17.445000000       0.711162474
  -17.435000000       0.706541860
  -17.425000000       0.702023254
  -17.415000000       0.697602953
  -17.405000000       0.693277439
  -17.395000000       0.689043364
  -17.385000000       0.684897542
  -17.375000000       0.680836939
  -17.365000000       0.676858663
  -17.355000000       0.672959955
  -17.345000000       0.669138186
  -17.335000000       0.665390841
  -17.325000000       0.661715520
  -17.315000000       0.658109928
  -17.305000000       0.654571871
  -17.295000000       0.651099249
  -17.285000000       0.647690049
  -17.275000000       0.644342347
  -17.265000000       0.641054295
  -17.255000000       0.637824124
  -17.245000000       0.634650134
  -17.235000000       0.631530697
  -17.225000000       0.628464245
  -17.215000000       0.625449276
  -17.205000000       0.622484344
  -17.195000000       0.619568060
  -17.185000000       0.616699088
  -17.175000000       0.613876140
  -17.165000000       0.611097980
  -17.155000000       0.608363414
  -17.145000000       0.605671295
  -17.135000000       0.603020514
  -17.125000000       0.600410006
  -17.115000000       0.597838740
  -17.105000000       0.595305724
  -17.095000000       0.592810000
  -17.085000000       0.590350642
  -17.075000000       0.587926757
  -17.065000000       0.585537482
  -17.055000000       0.583181983
  -17.045000000       0.580859454
  -17.035000000       0.578569115
  -17.025000000       0.576310212
  -17.015000000       0.574082017
  -17.005000000       0.571883822
  -16.995000000       0.569714946
  -16.985000000       0.567574726
  -16.975000000       0.565462522
  -16.965000000       0.563377712
  -16.955000000       0.561319696
  -16.945000000       0.559287891
  -16.935000000       0.557281730
  -16.925000000       0.555300666
  -16.915000000       0.553344167
  -16.905000000       0.551411718
  -16.895000000       0.549502817
  -16.885000000       0.547616979
  -16.875000000       0.545753732
  -16.865000000       0.543912617
  -16.855000000       0.542093191
  -16.845000000       0.540295020
  -16.835000000       0.538517685
  -16.825000000       0.536760777
  -16.815000000       0.535023900
  -16.805000000       0.533306668
  -16.795000000       0.531608705
  -16.785000000       0.529929647
  -16.775000000       0.528269138
  -16.765000000       0.526626834
  -16.755000000       0.525002398
  -16.745000000       0.523395503
  -16.735000000       0.521805830
  -16.725000000       0.520233069
  -16.715000000       0.518676918
  -16.705000000       0.517137084
  -16.695000000       0.515613279
  -16.685000000       0.514105224
  -16.675000000       0.512612647
  -16.665000000       0.511135283
  -16.655000000       0.509672873
  -16.645000000       0.508225166
  -16.635000000       0.506791915
  -16.625000000       0.505372881
  -16.615000000       0.503967830
  -16.605000000       0.502576534
  -16.595000000       0.501198771
  -16.585000000       0.499834322
  -16.575000000       0.498482978
  -16.565000000       0.497144530
  -16.555000000       0.495818776
  -16.545000000       0.494505521
  -16.535000000       0.493204571
  -16.525000000       0.491915737
  -16.515000000       0.490638838
  -16.505000000       0.489373693
  -16.495000000       0.488120127
  -16.485000000       0.486877969
  -16.475000000       0.485647051
  -16.465000000       0.484427211
  -16.455000000       0.483218288
  -16.445000000       0.482020127
  -16.435000000       0.480832574
  -16.425000000       0.479655481
  -16.415000000       0.478488700
  -16.405000000       0.477332091
  -16.395000000       0.476185512
  -16.385000000       0.475048828
  -16.375000000       0.473921904
  -16.365000000       0.472804610
  -16.355000000       0.471696818
  -16.345000000       0.470598403
  -16.335000000       0.469509243
  -16.325000000       0.468429217
  -16.315000000       0.467358208
  -16.305000000       0.466296101
  -16.295000000       0.465242783
  -16.285000000       0.464198145
  -16.275000000       0.463162079
  -16.265000000       0.462134479
  -16.255000000       0.461115241
  -16.245000000       0.460104264
  -16.235000000       0.459101449
  -16.225000000       0.458106699
  -16.215000000       0.457119918
  -16.205000000       0.456141012
  -16.195000000       0.455169891
  -16.185000000       0.454206465
  -16.175000000       0.453250645
  -16.165000000       0.452302346
  -16.155000000       0.451361483
  -16.145000000       0.450427973
  -16.135000000       0.449501735
  -16.125000000       0.448582689
  -16.115000000       0.447670758
  -16.105000000       0.446765865
  -16.095000000       0.445867934
  -16.085000000       0.444976893
  -16.075000000       0.444092668
  -16.065000000       0.443215189
  -16.055000000       0.442344387
  -16.045000000       0.441480193
  -16.035000000       0.440622540
  -16.025000000       0.439771363
  -16.015000000       0.438926597
  -16.005000000       0.438088179
  -15.995000000       0.437256047
  -15.985000000       0.436430140
  -15.975000000       0.435610398
  -15.965000000       0.434796763
  -15.955000000       0.433989176
  -15.945000000       0.433187581
  -15.935000000       0.432391924
  -15.925000000       0.431602148
  -15.915000000       0.430818201
  -15.905000000       0.430040029
  -15.895000000       0.429267583
  -15.885000000       0.428500809
  -15.875000000       0.427739660
  -15.865000000       0.426984085
  -15.855000000       0.426234037
  -15.845000000       0.425489469
  -15.835000000       0.424750333
  -15.825000000       0.424016585
  -15.815000000       0.423288180
  -15.805000000       0.422565074
  -15.795000000       0.421847223
  -15.785000000       0.421134585
  -15.775000000       0.420427118
  -15.765000000       0.419724782
  -15.755000000       0.419027536
  -15.745000000       0.418335340
  -15.735000000       0.417648155
  -15.725000000       0.416965943
  -15.715000000       0.416288667
  -15.705000000       0.415616289
  -15.695000000       0.414948774
  -15.685000000       0.414286085
  -15.675000000       0.413628186
  -15.665000000       0.412975045
  -15.655000000       0.412326626
  -15.645000000       0.411682897
  -15.635000000       0.411043824
  -15.625000000       0.410409376
  -15.615000000       0.409779520
  -15.605000000       0.409154225
  -15.595000000       0.408533461
  -15.585000000       0.407917197
  -15.575000000       0.407305404
  -15.565000000       0.406698053
  -15.555000000       0.406095114
  -15.545000000       0.405496560
  -15.535000000       0.404902363
  -15.525000000       0.404312496
  -15.515000000       0.403726932
  -15.505000000       0.403145644
  -15.495000000       0.402568606
  -15.485000000       0.401995794
  -15.475000000       0.401427181
  -15.465000000       0.400862743
  -15.455000000       0.400302457
  -15.445000000       0.399746297
  -15.435000000       0.399194241
  -15.425000000       0.398646265
  -15.415000000       0.398102347
  -15.405000000       0.397562465
  -15.395000000       0.397026596
  -15.385000000       0.396494718
  -15.375000000       0.395966812
  -15.365000000       0.395442855
  -15.355000000       0.394922828
  -15.345000000       0.394406710
  -15.335000000       0.393894481
  -15.325000000       0.393386123
  -15.315000000       0.392881616
  -15.305000000       0.392380944
  -15.295000000       0.391884089
  -15.285000000       0.391391042
  -15.275000000       0.390901825
  -15.265000000       0.390416858
  -15.255000000       0.389939983
  -15.245000000       0.389456553
  -15.235000000       0.388982019
  -15.225000000       0.388511310
  -15.215000000       0.388044301
  -15.205000000       0.387580960
  -15.195000000       0.387121267
  -15.185000000       0.386665204
  -15.175000000       0.386212755
  -15.165000000       0.385763906
  -15.155000000       0.385318641
  -15.145000000       0.384876947
  -15.135000000       0.384438809
  -15.125000000       0.384004213
  -15.115000000       0.383573146
  -15.105000000       0.383145595
  -15.095000000       0.382721546
  -15.085000000       0.382300987
  -15.075000000       0.381883905
  -15.065000000       0.381470289
  -15.055000000       0.381060125
  -15.045000000       0.380653402
  -15.035000000       0.380250109
  -15.025000000       0.379850234
  -15.015000000       0.379453766
  -15.005000000       0.379060694
  -14.995000000       0.378671008
  -14.985000000       0.378284697
  -14.975000000       0.377901750
  -14.965000000       0.377522158
  -14.955000000       0.377145911
  -14.945000000       0.376772999
  -14.935000000       0.376403413
  -14.925000000       0.376037144
  -14.915000000       0.375674182
  -14.905000000       0.375314519
  -14.895000000       0.374958147
  -14.885000000       0.374605057
  -14.875000000       0.374255240
  -14.865000000       0.373908689
  -14.855000000       0.373565397
  -14.845000000       0.373225355
  -14.835000000       0.372888556
  -14.825000000       0.372554993
  -14.815000000       0.372224658
  -14.805000000       0.371897546
  -14.795000000       0.371573650
  -14.785000000       0.371252962
  -14.775000000       0.370935478
  -14.765000000       0.370621190
  -14.755000000       0.370310094
  -14.745000000       0.370002182
  -14.735000000       0.369697451
  -14.725000000       0.369395894
  -14.715000000       0.369097506
  -14.705000000       0.368802283
  -14.695000000       0.368510219
  -14.685000000       0.368221311
  -14.675000000       0.367935554
  -14.665000000       0.367652943
  -14.655000000       0.367373474
  -14.645000000       0.367097145
  -14.635000000       0.366823950
  -14.625000000       0.366553887
  -14.615000000       0.366286952
  -14.605000000       0.366023142
  -14.595000000       0.365762455
  -14.585000000       0.365504887
  -14.575000000       0.365250436
  -14.565000000       0.364999099
  -14.555000000       0.364750874
  -14.545000000       0.364505760
  -14.535000000       0.364263753
  -14.525000000       0.364024854
  -14.515000000       0.363789059
  -14.505000000       0.363556368
  -14.495000000       0.363326780
  -14.485000000       0.363100293
  -14.475000000       0.362876907
  -14.465000000       0.362656621
  -14.455000000       0.362439435
  -14.445000000       0.362225348
  -14.435000000       0.362014361
  -14.425000000       0.361806473
  -14.415000000       0.361601684
  -14.405000000       0.361399996
  -14.395000000       0.361201409
  -14.385000000       0.361005923
  -14.375000000       0.360813541
  -14.365000000       0.360624262
  -14.355000000       0.360438088
  -14.345000000       0.360255021
  -14.335000000       0.360075063
  -14.325000000       0.359898215
  -14.315000000       0.359724480
  -14.305000000       0.359553860
  -14.295000000       0.359386357
  -14.285000000       0.359221975
  -14.275000000       0.359060715
  -14.265000000       0.358902582
  -14.255000000       0.358747579
  -14.245000000       0.358595708
  -14.235000000       0.358446974
  -14.225000000       0.358301380
  -14.215000000       0.358158932
  -14.205000000       0.358019631
  -14.195000000       0.357883485
  -14.185000000       0.357750496
  -14.175000000       0.357620671
  -14.165000000       0.357494013
  -14.155000000       0.357370529
  -14.145000000       0.357250223
  -14.135000000       0.357133102
  -14.125000000       0.357019172
  -14.115000000       0.356908438
  -14.105000000       0.356800908
  -14.095000000       0.356696587
  -14.085000000       0.356595483
  -14.075000000       0.356497602
  -14.065000000       0.356402952
  -14.055000000       0.356311540
  -14.045000000       0.356223374
  -14.035000000       0.356138462
  -14.025000000       0.356056813
  -14.015000000       0.355978434
  -14.005000000       0.355903334
  -13.995000000       0.355831522
  -13.985000000       0.355763008
  -13.975000000       0.355697800
  -13.965000000       0.355635909
  -13.955000000       0.355577344
  -13.945000000       0.355522115
  -13.935000000       0.355470233
  -13.925000000       0.355421709
  -13.915000000       0.355376553
  -13.905000000       0.355334777
  -13.895000000       0.355296392
  -13.885000000       0.355261409
  -13.875000000       0.355229842
  -13.865000000       0.355201701
  -13.855000000       0.355177001
  -13.845000000       0.355155753
  -13.835000000       0.355137971
  -13.825000000       0.355123668
  -13.815000000       0.355112858
  -13.805000000       0.355105556
  -13.795000000       0.355101775
  -13.785000000       0.355101529
  -13.775000000       0.355104835
  -13.765000000       0.355111708
  -13.755000000       0.355122162
  -13.745000000       0.355136215
  -13.735000000       0.355153882
  -13.725000000       0.355175179
  -13.715000000       0.355200125
  -13.705000000       0.355228736
  -13.695000000       0.355261030
  -13.685000000       0.355297025
  -13.675000000       0.355336739
  -13.665000000       0.355380191
  -13.655000000       0.355427400
  -13.645000000       0.355478387
  -13.635000000       0.355533169
  -13.625000000       0.355591769
  -13.615000000       0.355654206
  -13.605000000       0.355720502
  -13.595000000       0.355790679
  -13.585000000       0.355864757
  -13.575000000       0.355942759
  -13.565000000       0.356024709
  -13.555000000       0.356110630
  -13.545000000       0.356200544
  -13.535000000       0.356294476
  -13.525000000       0.356392451
  -13.515000000       0.356494494
  -13.505000000       0.356600630
  -13.495000000       0.356710885
  -13.485000000       0.356825286
  -13.475000000       0.356943859
  -13.465000000       0.357066633
  -13.455000000       0.357193634
  -13.445000000       0.357324893
  -13.435000000       0.357460436
  -13.425000000       0.357600295
  -13.415000000       0.357744500
  -13.405000000       0.357893080
  -13.395000000       0.358046068
  -13.385000000       0.358203495
  -13.375000000       0.358365394
  -13.365000000       0.358531797
  -13.355000000       0.358702739
  -13.345000000       0.358878254
  -13.335000000       0.359058376
  -13.325000000       0.359243142
  -13.315000000       0.359432588
  -13.305000000       0.359626750
  -13.295000000       0.359825666
  -13.285000000       0.360029375
  -13.275000000       0.360237916
  -13.265000000       0.360451328
  -13.255000000       0.360669652
  -13.245000000       0.360892929
  -13.235000000       0.361121202
  -13.225000000       0.361354514
  -13.215000000       0.361592907
  -13.205000000       0.361836427
  -13.195000000       0.362085119
  -13.185000000       0.362339030
  -13.175000000       0.362598205
  -13.165000000       0.362862694
  -13.155000000       0.363132545
  -13.145000000       0.363407808
  -13.135000000       0.363688535
  -13.125000000       0.363974776
  -13.115000000       0.364266584
  -13.105000000       0.364564014
  -13.095000000       0.364867120
  -13.085000000       0.365175958
  -13.075000000       0.365490585
  -13.065000000       0.365811059
  -13.055000000       0.366137440
  -13.045000000       0.366469788
  -13.035000000       0.366808164
  -13.025000000       0.367152631
  -13.015000000       0.367503254
  -13.005000000       0.367860097
  -12.995000000       0.368223228
  -12.985000000       0.368592714
  -12.975000000       0.368968624
  -12.965000000       0.369351030
  -12.955000000       0.369740003
  -12.945000000       0.370135618
  -12.935000000       0.370537948
  -12.925000000       0.370947071
  -12.915000000       0.371363065
  -12.905000000       0.371786009
  -12.895000000       0.372215986
  -12.885000000       0.372653079
  -12.875000000       0.373097371
  -12.865000000       0.373548950
  -12.855000000       0.374007905
  -12.845000000       0.374474325
  -12.835000000       0.374948303
  -12.825000000       0.375429933
  -12.815000000       0.375919311
  -12.805000000       0.376416536
  -12.795000000       0.376921708
  -12.785000000       0.377434929
  -12.775000000       0.377956304
  -12.765000000       0.378485940
  -12.755000000       0.379023947
  -12.745000000       0.379570437
  -12.735000000       0.380125524
  -12.725000000       0.380689324
  -12.715000000       0.381261957
  -12.705000000       0.381843546
  -12.695000000       0.382434214
  -12.685000000       0.383034091
  -12.675000000       0.383643306
  -12.665000000       0.384261994
  -12.655000000       0.384890290
  -12.645000000       0.385528335
  -12.635000000       0.386176273
  -12.625000000       0.386834249
  -12.615000000       0.387502414
  -12.605000000       0.388180921
  -12.595000000       0.388869928
  -12.585000000       0.389569595
  -12.575000000       0.390280088
  -12.565000000       0.391001576
  -12.555000000       0.391734230
  -12.545000000       0.392478230
  -12.535000000       0.393233756
  -12.525000000       0.394000995
  -12.515000000       0.394780137
  -12.505000000       0.395571379
  -12.495000000       0.396374921
  -12.485000000       0.397190969
  -12.475000000       0.398019733
  -12.465000000       0.398861432
  -12.455000000       0.399716286
  -12.445000000       0.400584524
  -12.435000000       0.401466380
  -12.425000000       0.402362094
  -12.415000000       0.403271913
  -12.405000000       0.404196091
  -12.395000000       0.405134887
  -12.385000000       0.406088569
  -12.375000000       0.407057412
  -12.365000000       0.408041699
  -12.355000000       0.409041719
  -12.345000000       0.410057771
  -12.335000000       0.411090163
  -12.325000000       0.412139209
  -12.315000000       0.413205235
  -12.305000000       0.414288574
  -12.295000000       0.415389572
  -12.285000000       0.416508582
  -12.275000000       0.417645969
  -12.265000000       0.418802109
  -12.255000000       0.419977389
  -12.245000000       0.421172207
  -12.235000000       0.422386975
  -12.225000000       0.423622117
  -12.215000000       0.424878069
  -12.205000000       0.426155283
  -12.195000000       0.427454224
  -12.185000000       0.428775372
  -12.175000000       0.430119222
  -12.165000000       0.431486287
  -12.155000000       0.432877095
  -12.145000000       0.434292193
  -12.135000000       0.435732144
  -12.125000000       0.437197533
  -12.115000000       0.438688964
  -12.105000000       0.440207061
  -12.095000000       0.441752470
  -12.085000000       0.443325860
  -12.075000000       0.444927924
  -12.065000000       0.446559379
  -12.055000000       0.448220970
  -12.045000000       0.449913466
  -12.035000000       0.451637668
  -12.025000000       0.453394404
  -12.015000000       0.455184535
  -12.005000000       0.457008953
  -11.995000000       0.458868588
  -11.985000000       0.460764402
  -11.975000000       0.462697398
  -11.965000000       0.464668616
  -11.955000000       0.466679142
  -11.945000000       0.468730103
  -11.935000000       0.470822673
  -11.925000000       0.472958075
  -11.915000000       0.475137585
  -11.905000000       0.477362532
  -11.895000000       0.479634303
  -11.885000000       0.481954345
  -11.875000000       0.484324170
  -11.865000000       0.486745358
  -11.855000000       0.489219559
  -11.845000000       0.491748501
  -11.835000000       0.494333990
  -11.825000000       0.496977921
  -11.815000000       0.499682277
  -11.805000000       0.502449137
  -11.795000000       0.505280684
  -11.785000000       0.508179209
  -11.775000000       0.511147118
  -11.765000000       0.514186941
  -11.755000000       0.517301342
  -11.745000000       0.520493122
  -11.735000000       0.523765236
  -11.725000000       0.527120796
  -11.715000000       0.530563090
  -11.705000000       0.534095589
  -11.695000000       0.537721962
  -11.685000000       0.541446091
  -11.675000000       0.545272089
  -11.665000000       0.549204313
  -11.655000000       0.553247388
  -11.645000000       0.557406226
  -11.635000000       0.561686050
  -11.625000000       0.566092419
  -11.615000000       0.570631256
  -11.605000000       0.575308880
  -11.595000000       0.580132043
  -11.585000000       0.585107963
  -11.575000000       0.590244370
  -11.565000000       0.595549556
  -11.555000000       0.601032421
  -11.545000000       0.606702539
  -11.535000000       0.612570221
  -11.525000000       0.618646592
  -11.515000000       0.624943671
  -11.505000000       0.631474469
  -11.495000000       0.638253098
  -11.485000000       0.645294890
  -11.475000000       0.652616535
  -11.465000000       0.660236244
  -11.455000000       0.668173931
  -11.445000000       0.676451419
  -11.435000000       0.685092683
  -11.425000000       0.694124136
  -11.415000000       0.703574947
  -11.405000000       0.713477432
  -11.395000000       0.723867495
  -11.385000000       0.734785162
  -11.375000000       0.746275207
  -11.365000000       0.758387904
  -11.355000000       0.771179920
  -11.345000000       0.784715403
  -11.335000000       0.799067303
  -11.325000000       0.814318980
  -11.315000000       0.830566196
  -11.305000000       0.847919593
  -11.295000000       0.866507798
  -11.285000000       0.886481366
  -11.275000000       0.908017820
  -11.265000000       0.931328203
  -11.255000000       0.956665663
  -11.245000000       0.984336910
  -11.235000000       1.014717704
  -11.225000000       1.048274211
  -11.215000000       1.085593014
  -11.205000000       1.127424275
  -11.195000000       1.174745437
  -11.185000000       1.228858117
  -11.175000000       1.291540775
  -11.165000000       1.365299543
  -11.155000000       1.453801720
  -11.145000000       1.562673237
  -11.135000000       1.701086745
  -11.125000000       1.885272016
  -11.115000000       2.147483573
  -11.105000000       2.564471783
  -11.095000000       3.389464975
  -11.085000000       6.723997407
  -11.075000000       0.148137542
  -11.065000000       0.033492718
  -11.055000000       0.015307002
  -11.045000000       0.008916757
  -11.035000000       0.005886498
  -11.025000000       0.004196207
  -11.015000000       0.003151276
  -11.005000000       0.002457619
  -10.995000000       0.001972388
  -10.985000000       0.001619034
  -10.975000000       0.001353387
  -10.965000000       0.001148440
  -10.955000000       0.000986894
  -10.945000000       0.000857234
  -10.935000000       0.000751545
  -10.925000000       0.000664235
  -10.915000000       0.000591262
  -10.905000000       0.000529640
  -10.895000000       0.000477125
  -10.885000000       0.000432005
  -10.875000000       0.000392951
  -10.865000000       0.000358923
  -10.855000000       0.000329094
  -10.845000000       0.000302802
  -10.835000000       0.000279509
  -10.825000000       0.000258776
  -10.815000000       0.000240244
  -10.805000000       0.000223611
  -10.795000000       0.000208629
  -10.785000000       0.000195087
  -10.775000000       0.000182807
  -10.765000000       0.000171637
  -10.755000000       0.000161450
  -10.745000000       0.000152133
  -10.735000000       0.000143591
  -10.725000000       0.000135741
  -10.715000000       0.000128512
  -10.705000000       0.000121839
  -10.695000000       0.000115668
  -10.685000000       0.000109950
  -10.675000000       0.000104643
  -10.665000000       0.000099708
  -10.655000000       0.000095112
  -10.645000000       0.000090825
  -10.635000000       0.000086821
  -10.625000000       0.000083075
  -10.615000000       0.000079566
  -10.605000000       0.000076275
  -10.595000000       0.000073184
  -10.585000000       0.000070278
  -10.575000000       0.000067543
  -10.565000000       0.000064965
  -10.555000000       0.000062534
  -10.545000000       0.000060238
  -10.535000000       0.000058068
  -10.525000000       0.000056015
  -10.515000000       0.000054071
  -10.505000000       0.000052229
  -10.495000000       0.000050481
  -10.485000000       0.000048823
  -10.475000000       0.000047247
  -10.465000000       0.000045749
  -10.455000000       0.000044323
  -10.445000000       0.000042966
  -10.435000000       0.000041673
  -10.425000000       0.000040441
  -10.415000000       0.000039265
  -10.405000000       0.000038143
  -10.395000000       0.000037072
  -10.385000000       0.000036048
  -10.375000000       0.000035068
  -10.365000000       0.000034132
  -10.355000000       0.000033235
  -10.345000000       0.000032377
  -10.335000000       0.000031555
  -10.325000000       0.000030767
  -10.315000000       0.000030011
  -10.305000000       0.000029286
  -10.295000000       0.000028590
  -10.285000000       0.000027922
  -10.275000000       0.000027281
  -10.265000000       0.000026665
  -10.255000000       0.000026072
  -10.245000000       0.000025503
  -10.235000000       0.000024955
  -10.225000000       0.000024428
  -10.215000000       0.000023921
  -10.205000000       0.000023433
  -10.195000000       0.000022963
  -10.185000000       0.000022511
  -10.175000000       0.000022075
  -10.165000000       0.000021654
  -10.155000000       0.000021249
  -10.145000000       0.000020859
  -10.135000000       0.000020483
  -10.125000000       0.000020120
  -10.115000000       0.000019770
  -10.105000000       0.000019432
  -10.095000000       0.000019106
  -10.085000000       0.000018792
  -10.075000000       0.000018488
  -10.065000000       0.000018195
  -10.055000000       0.000017913
  -10.045000000       0.000017640
  -10.035000000       0.000017376
  -10.025000000       0.000017122
  -10.015000000       0.000016876
  -10.005000000       0.000016639
   -9.995000000       0.000016410
   -9.985000000       0.000016189
   -9.975000000       0.000015975
   -9.965000000       0.000015769
   -9.955000000       0.000015570
   -9.945000000       0.000015378
   -9.935000000       0.000015193
   -9.925000000       0.000015014
   -9.915000000       0.000014841
   -9.905000000       0.000014675
   -9.895000000       0.000014514
   -9.885000000       0.000014359
   -9.875000000       0.000014210
   -9.865000000       0.000014066
   -9.855000000       0.000013927
   -9.845000000       0.000013793
   -9.835000000       0.000013664
   -9.825000000       0.000013540
   -9.815000000       0.000013421
   -9.805000000       0.000013306
   -9.795000000       0.000013196
   -9.785000000       0.000013090
   -9.775000000       0.000012988
   -9.765000000       0.000012890
   -9.755000000       0.000012796
   -9.745000000       0.000012707
   -9.735000000       0.000012621
   -9.725000000       0.000012539
   -9.715000000       0.000012460
   -9.705000000       0.000012385
   -9.695000000       0.000012314
   -9.685000000       0.000012246
   -9.675000000       0.000012181
   -9.665000000       0.000012120
   -9.655000000       0.000012062
   -9.645000000       0.000012007
   -9.635000000       0.000011955
   -9.625000000       0.000011907
   -9.615000000       0.000011861
   -9.605000000       0.000011818
   -9.595000000       0.000011779
   -9.585000000       0.000011742
   -9.575000000       0.000011708
   -9.565000000       0.000011677
   -9.555000000       0.000011648
   -9.545000000       0.000011623
   -9.535000000       0.000011600
   -9.525000000       0.000011580
   -9.515000000       0.000011562
   -9.505000000       0.000011547
   -9.495000000       0.000011534
   -9.485000000       0.000011525
   -9.475000000       0.000011517
   -9.465000000       0.000011513
   -9.455000000       0.000011510
   -9.445000000       0.000011510
   -9.435000000       0.000011513
   -9.425000000       0.000011518
   -9.415000000       0.000011526
   -9.405000000       0.000011536
   -9.395000000       0.000011549
   -9.385000000       0.000011563
   -9.375000000       0.000011581
   -9.365000000       0.000011601
   -9.355000000       0.000011623
   -9.345000000       0.000011647
   -9.335000000       0.000011674
   -9.325000000       0.000011704
   -9.315000000       0.000011736
   -9.305000000       0.000011770
   -9.295000000       0.000011807
   -9.285000000       0.000011846
   -9.275000000       0.000011888
   -9.265000000       0.000011932
   -9.255000000       0.000011978
   -9.245000000       0.000012027
   -9.235000000       0.000012079
   -9.225000000       0.000012133
   -9.215000000       0.000012190
   -9.205000000       0.000012249
   -9.195000000       0.000012311
   -9.185000000       0.000012375
   -9.175000000       0.000012442
   -9.165000000       0.000012512
   -9.155000000       0.000012584
   -9.145000000       0.000012659
   -9.135000000       0.000012737
   -9.125000000       0.000012818
   -9.115000000       0.000012901
   -9.105000000       0.000012988
   -9.095000000       0.000013077
   -9.085000000       0.000013169
   -9.075000000       0.000013264
   -9.065000000       0.000013362
   -9.055000000       0.000013464
   -9.045000000       0.000013568
   -9.035000000       0.000013675
   -9.025000000       0.000013786
   -9.015000000       0.000013900
   -9.005000000       0.000014017
   -8.995000000       0.000014138
   -8.985000000       0.000014262
   -8.975000000       0.000014390
   -8.965000000       0.000014521
   -8.955000000       0.000014656
   -8.945000000       0.000014795
   -8.935000000       0.000014937
   -8.925000000       0.000015084
   -8.915000000       0.000015234
   -8.905000000       0.000015389
   -8.895000000       0.000015547
   -8.885000000       0.000015710
   -8.875000000       0.000015877
   -8.865000000       0.000016049
   -8.855000000       0.000016225
   -8.845000000       0.000016405
   -8.835000000       0.000016591
   -8.825000000       0.000016781
   -8.815000000       0.000016976
   -8.805000000       0.000017177
   -8.795000000       0.000017382
   -8.785000000       0.000017593
   -8.775000000       0.000017810
   -8.765000000       0.000018032
   -8.755000000       0.000018260
   -8.745000000       0.000018494
   -8.735000000       0.000018734
   -8.725000000       0.000018981
   -8.715000000       0.000019233
   -8.705000000       0.000019493
   -8.695000000       0.000019759
   -8.685000000       0.000020033
   -8.675000000       0.000020313
   -8.665000000       0.000020601
   -8.655000000       0.000020897
   -8.645000000       0.000021201
   -8.635000000       0.000021513
   -8.625000000       0.000021833
   -8.615000000       0.000022162
   -8.605000000       0.000022499
   -8.595000000       0.000022846
   -8.585000000       0.000023203
   -8.575000000       0.000023569
   -8.565000000       0.000023945
   -8.555000000       0.000024332
   -8.545000000       0.000024730
   -8.535000000       0.000025139
   -8.525000000       0.000025559
   -8.515000000       0.000025991
   -8.505000000       0.000026436
   -8.495000000       0.000026894
   -8.485000000       0.000027364
   -8.475000000       0.000027849
   -8.465000000       0.000028347
   -8.455000000       0.000028861
   -8.445000000       0.000029390
   -8.435000000       0.000029934
   -8.425000000       0.000030495
   -8.415000000       0.000031073
   -8.405000000       0.000031669
   -8.395000000       0.000032283
   -8.385000000       0.000032916
   -8.375000000       0.000033569
   -8.365000000       0.000034243
   -8.355000000       0.000034938
   -8.345000000       0.000035655
   -8.335000000       0.000036396
   -8.325000000       0.000037161
   -8.315000000       0.000037951
   -8.305000000       0.000038768
   -8.295000000       0.000039612
   -8.285000000       0.000040485
   -8.275000000       0.000041388
   -8.265000000       0.000042322
   -8.255000000       0.000043288
   -8.245000000       0.000044289
   -8.235000000       0.000045326
   -8.225000000       0.000046399
   -8.215000000       0.000047512
   -8.205000000       0.000048666
   -8.195000000       0.000049863
   -8.185000000       0.000051105
   -8.175000000       0.000052395
   -8.165000000       0.000053734
   -8.155000000       0.000055125
   -8.145000000       0.000056570
   -8.135000000       0.000058074
   -8.125000000       0.000059638
   -8.115000000       0.000061266
   -8.105000000       0.000062962
   -8.095000000       0.000064729
   -8.085000000       0.000066570
   -8.075000000       0.000068491
   -8.065000000       0.000070496
   -8.055000000       0.000072589
   -8.045000000       0.000074776
   -8.035000000       0.000077062
   -8.025000000       0.000079453
   -8.015000000       0.000081956
   -8.005000000       0.000084578
   -7.995000000       0.000087326
   -7.985000000       0.000090209
   -7.975000000       0.000093234
   -7.965000000       0.000096412
   -7.955000000       0.000099753
   -7.945000000       0.000103268
   -7.935000000       0.000106968
   -7.925000000       0.000110868
   -7.915000000       0.000114982
   -7.905000000       0.000119325
   -7.895000000       0.000123914
   -7.885000000       0.000128768
   -7.875000000       0.000133908
   -7.865000000       0.000139357
   -7.855000000       0.000145138
   -7.845000000       0.000151281
   -7.835000000       0.000157814
   -7.825000000       0.000164772
   -7.815000000       0.000172192
   -7.805000000       0.000180115
   -7.795000000       0.000188587
   -7.785000000       0.000197660
   -7.775000000       0.000207392
   -7.765000000       0.000217847
   -7.755000000       0.000229098
   -7.745000000       0.000241229
   -7.735000000       0.000254331
   -7.725000000       0.000268512
   -7.715000000       0.000283892
   -7.705000000       0.000300609
   -7.695000000       0.000318823
   -7.685000000       0.000338717
   -7.675000000       0.000360504
   -7.665000000       0.000384429
   -7.655000000       0.000410783
   -7.645000000       0.000439905
   -7.635000000       0.000472195
   -7.625000000       0.000508129
   -7.615000000       0.000548279
   -7.605000000       0.000593329
   -7.595000000       0.000644112
   -7.585000000       0.000701645
   -7.575000000       0.000767184
   -7.565000000       0.000842292
   -7.555000000       0.000928933
   -7.545000000       0.001029610
   -7.535000000       0.001147548
   -7.525000000       0.001286960
   -7.515000000       0.001453444
   -7.505000000       0.001654567
   -7.495000000       0.001900767
   -7.485000000       0.002206788
   -7.475000000       0.002594019
   -7.465000000       0.003094501
   -7.455000000       0.003758080
   -7.445000000       0.004665955
   -7.435000000       0.005958183
   -7.425000000       0.007894616
   -7.415000000       0.011006259
   -7.405000000       0.016534707
   -7.395000000       0.028036544
   -7.385000000       0.059966757
   -7.375000000       0.246301658
   -7.365000000      13.304746429
   -7.355000000       6.334469106
   -7.345000000       4.756035738
   -7.335000000       3.971485761
   -7.325000000       3.481879199
   -7.315000000       3.139500863
   -7.305000000       2.882983101
   -7.295000000       2.681662993
   -7.285000000       2.518293322
   -7.275000000       2.382332582
   -7.265000000       2.266927559
   -7.255000000       2.167404858
   -7.245000000       2.080453751
   -7.235000000       2.003654661
   -7.225000000       1.935192824
   -7.215000000       1.873676914
   -7.205000000       1.818019980
   -7.195000000       1.767358900
   -7.185000000       1.720998434
   -7.175000000       1.678371465
   -7.165000000       1.639010178
   -7.155000000       1.602524775
   -7.145000000       1.568587519
   -7.135000000       1.536920588
   -7.125000000       1.507286717
   -7.115000000       1.479481892
   -7.105000000       1.453329594
   -7.095000000       1.428676218
   -7.085000000       1.405387383
   -7.075000000       1.383344949
   -7.065000000       1.362444584
   -7.055000000       1.342593752
   -7.045000000       1.323710054
   -7.035000000       1.305719850
   -7.025000000       1.288557091
   -7.015000000       1.272162348
   -7.005000000       1.256481980
   -6.995000000       1.241467431
   -6.985000000       1.227074627
   -6.975000000       1.213263458
   -6.965000000       1.199997332
   -6.955000000       1.187242788
   -6.945000000       1.174969157
   -6.935000000       1.163148277
   -6.925000000       1.151754229
   -6.915000000       1.140763114
   -6.905000000       1.130152858
   -6.895000000       1.119903034
   -6.885000000       1.109994708
   -6.875000000       1.100410302
   -6.865000000       1.091133473
   -6.855000000       1.082148999
   -6.845000000       1.073442689
   -6.835000000       1.065001290
   -6.825000000       1.056812409
   -6.815000000       1.048864446
   -6.805000000       1.041146525
   -6.795000000       1.033648442
   -6.785000000       1.026360609
   -6.775000000       1.019274007
   -6.765000000       1.012380147
   -6.755000000       1.005671026
   -6.745000000       0.999139094
   -6.735000000       0.992777222
   -6.725000000       0.986578671
   -6.715000000       0.980537066
   -6.705000000       0.974646371
   -6.695000000       0.968900864
   -6.685000000       0.963295119
   -6.675000000       0.957823987
   -6.665000000       0.952482574
   -6.655000000       0.947266230
   -6.645000000       0.942170529
   -6.635000000       0.937191259
   -6.625000000       0.932324406
   -6.615000000       0.927566145
   -6.605000000       0.922912824
   -6.595000000       0.918360961
   -6.585000000       0.913907227
   -6.575000000       0.909548441
   -6.565000000       0.905281562
   -6.555000000       0.901103679
   -6.545000000       0.897012006
   -6.535000000       0.893003874
   -6.525000000       0.889076723
   -6.515000000       0.885228101
   -6.505000000       0.881455654
   -6.495000000       0.877757121
   -6.485000000       0.874130333
   -6.475000000       0.870573205
   -6.465000000       0.867083732
   -6.455000000       0.863659985
   -6.445000000       0.860300110
   -6.435000000       0.857002321
   -6.425000000       0.853764898
   -6.415000000       0.850586185
   -6.405000000       0.847464583
   -6.395000000       0.844398553
   -6.385000000       0.841386609
   -6.375000000       0.838427317
   -6.365000000       0.835519294
   -6.355000000       0.832661202
   -6.345000000       0.829851750
   -6.335000000       0.827089691
   -6.325000000       0.824373816
   -6.315000000       0.821702958
   -6.305000000       0.819075989
   -6.295000000       0.816491816
   -6.285000000       0.813949379
   -6.275000000       0.811447654
   -6.265000000       0.808985648
   -6.255000000       0.806562399
   -6.245000000       0.804176974
   -6.235000000       0.801828467
   -6.225000000       0.799516001
   -6.215000000       0.797238725
   -6.205000000       0.794995811
   -6.195000000       0.792786458
   -6.185000000       0.790609886
   -6.175000000       0.788465337
   -6.165000000       0.786352077
   -6.155000000       0.784269388
   -6.145000000       0.782216577
   -6.135000000       0.780192966
   -6.125000000       0.778197898
   -6.115000000       0.776230733
   -6.105000000       0.774290847
   -6.095000000       0.772377634
   -6.085000000       0.770490503
   -6.075000000       0.768628879
   -6.065000000       0.766792201
   -6.055000000       0.764979922
   -6.045000000       0.763191511
   -6.035000000       0.761426447
   -6.025000000       0.759684226
   -6.015000000       0.757964352
   -6.005000000       0.756266345
   -5.995000000       0.754589733
   -5.985000000       0.752934058
   -5.975000000       0.751298872
   -5.965000000       0.749683738
   -5.955000000       0.748088228
   -5.945000000       0.746511924
   -5.935000000       0.744954420
   -5.925000000       0.743415315
   -5.915000000       0.741894222
   -5.905000000       0.740390758
   -5.895000000       0.738904552
   -5.885000000       0.737435239
   -5.875000000       0.735982464
   -5.865000000       0.734545876
   -5.855000000       0.733125136
   -5.845000000       0.731719909
   -5.835000000       0.730329868
   -5.825000000       0.728954694
   -5.815000000       0.727594074
   -5.805000000       0.726247700
   -5.795000000       0.724915272
   -5.785000000       0.723596495
   -5.775000000       0.722291081
   -5.765000000       0.720998747
   -5.755000000       0.719719216
   -5.745000000       0.718452217
   -5.735000000       0.717197482
   -5.725000000       0.715954752
   -5.715000000       0.714723769
   -5.705000000       0.713504282
   -5.695000000       0.712296046
   -5.685000000       0.711098818
   -5.675000000       0.709912361
   -5.665000000       0.708736442
   -5.655000000       0.707570834
   -5.645000000       0.706415311
   -5.635000000       0.705269653
   -5.625000000       0.704133645
   -5.615000000       0.703007074
   -5.605000000       0.701889733
   -5.595000000       0.700781416
   -5.585000000       0.699681922
   -5.575000000       0.698591054
   -5.565000000       0.697508619
   -5.555000000       0.696434425
   -5.545000000       0.695368286
   -5.535000000       0.694310018
   -5.525000000       0.693259440
   -5.515000000       0.692216375
   -5.505000000       0.691180648
   -5.495000000       0.690152088
   -5.485000000       0.689130526
   -5.475000000       0.688115796
   -5.465000000       0.687107737
   -5.455000000       0.686106187
   -5.445000000       0.685110989
   -5.435000000       0.684121990
   -5.425000000       0.683139035
   -5.415000000       0.682161978
   -5.405000000       0.681190669
   -5.395000000       0.680224965
   -5.385000000       0.679264723
   -5.375000000       0.678309805
   -5.365000000       0.677360071
   -5.355000000       0.676415389
   -5.345000000       0.675475623
   -5.335000000       0.674540645
   -5.325000000       0.673610326
   -5.315000000       0.672684539
   -5.305000000       0.671763160
   -5.295000000       0.670846067
   -5.285000000       0.669933140
   -5.275000000       0.669024262
   -5.265000000       0.668119316
   -5.255000000       0.667218188
   -5.245000000       0.666320766
   -5.235000000       0.665426940
   -5.225000000       0.664536602
   -5.215000000       0.663649645
   -5.205000000       0.662765965
   -5.195000000       0.661885458
   -5.185000000       0.661008024
   -5.175000000       0.660133563
   -5.165000000       0.659261978
   -5.155000000       0.658393173
   -5.145000000       0.657527055
   -5.135000000       0.656663529
   -5.125000000       0.655802506
   -5.115000000       0.654943896
   -5.105000000       0.654087612
   -5.095000000       0.653233568
   -5.085000000       0.652381679
   -5.075000000       0.651531862
   -5.065000000       0.650684036
   -5.055000000       0.649838122
   -5.045000000       0.648994040
   -5.035000000       0.648151715
   -5.025000000       0.647311057
   -5.015000000       0.646472033
   -5.005000000       0.645634529
   -4.995000000       0.644798489
   -4.985000000       0.643963843
   -4.975000000       0.643130522
   -4.965000000       0.642298460
   -4.955000000       0.641467592
   -4.945000000       0.640637852
   -4.935000000       0.639809179
   -4.925000000       0.638981511
   -4.915000000       0.638154788
   -4.905000000       0.637328952
   -4.895000000       0.636503943
   -4.885000000       0.635679708
   -4.875000000       0.634856189
   -4.865000000       0.634033335
   -4.855000000       0.633211092
   -4.845000000       0.632389409
   -4.835000000       0.631568236
   -4.825000000       0.630747525
   -4.815000000       0.629927228
   -4.805000000       0.629107298
   -4.795000000       0.628287691
   -4.785000000       0.627468362
   -4.775000000       0.626649268
   -4.765000000       0.625830369
   -4.755000000       0.625011622
   -4.745000000       0.624192989
   -4.735000000       0.623374432
   -4.725000000       0.622555912
   -4.715000000       0.621737395
   -4.705000000       0.620918845
   -4.695000000       0.620100227
   -4.685000000       0.619281510
   -4.675000000       0.618462661
   -4.665000000       0.617643649
   -4.655000000       0.616824445
   -4.645000000       0.616005020
   -4.635000000       0.615185346
   -4.625000000       0.614365396
   -4.615000000       0.613545145
   -4.605000000       0.612724567
   -4.595000000       0.611903640
   -4.585000000       0.611082339
   -4.575000000       0.610260644
   -4.565000000       0.609438533
   -4.555000000       0.608615986
   -4.545000000       0.607792984
   -4.535000000       0.606969508
   -4.525000000       0.606145543
   -4.515000000       0.605321070
   -4.505000000       0.604496075
   -4.495000000       0.603670543
   -4.485000000       0.602844459
   -4.475000000       0.602017812
   -4.465000000       0.601190588
   -4.455000000       0.600362777
   -4.445000000       0.599534368
   -4.435000000       0.598705351
   -4.425000000       0.597875717
   -4.415000000       0.597045458
   -4.405000000       0.596214567
   -4.395000000       0.595383037
   -4.385000000       0.594550863
   -4.375000000       0.593718038
   -4.365000000       0.592884559
   -4.355000000       0.592050423
   -4.345000000       0.591215625
   -4.335000000       0.590380163
   -4.325000000       0.589544037
   -4.315000000       0.588707245
   -4.305000000       0.587869787
   -4.295000000       0.587031663
   -4.285000000       0.586192874
   -4.275000000       0.585353423
   -4.265000000       0.584513310
   -4.255000000       0.583672539
   -4.245000000       0.582831113
   -4.235000000       0.581989037
   -4.225000000       0.581146316
   -4.215000000       0.580302953
   -4.205000000       0.579458955
   -4.195000000       0.578614329
   -4.185000000       0.577769080
   -4.175000000       0.576923217
   -4.165000000       0.576076747
   -4.155000000       0.575229679
   -4.145000000       0.574382021
   -4.135000000       0.573533783
   -4.125000000       0.572684974
   -4.115000000       0.571835605
   -4.105000000       0.570985686
   -4.095000000       0.570135228
   -4.085000000       0.569284243
   -4.075000000       0.568432743
   -4.065000000       0.567580740
   -4.055000000       0.566728247
   -4.045000000       0.565875277
   -4.035000000       0.565021843
   -4.025000000       0.564167960
   -4.015000000       0.563313641
   -4.005000000       0.562458901
   -3.995000000       0.561603755
   -3.985000000       0.560748217
   -3.975000000       0.559892305
   -3.965000000       0.559036032
   -3.955000000       0.558179416
   -3.945000000       0.557322473
   -3.935000000       0.556465218
   -3.925000000       0.555607670
   -3.915000000       0.554749846
   -3.905000000       0.553891762
   -3.895000000       0.553033437
   -3.885000000       0.552174887
   -3.875000000       0.551316132
   -3.865000000       0.550457190
   -3.855000000       0.549598078
   -3.845000000       0.548738816
   -3.835000000       0.547879423
   -3.825000000       0.547019917
   -3.815000000       0.546160317
   -3.805000000       0.545300643
   -3.795000000       0.544440915
   -3.785000000       0.543581152
   -3.775000000       0.542721373
   -3.765000000       0.541861598
   -3.755000000       0.541001848
   -3.745000000       0.540142143
   -3.735000000       0.539282502
   -3.725000000       0.538422945
   -3.715000000       0.537563494
   -3.705000000       0.536704169
   -3.695000000       0.535844989
   -3.685000000       0.534985975
   -3.675000000       0.534127149
   -3.665000000       0.533268530
   -3.655000000       0.532410140
   -3.645000000       0.531551998
   -3.635000000       0.530694126
   -3.625000000       0.529836544
   -3.615000000       0.528979273
   -3.605000000       0.528122334
   -3.595000000       0.527265748
   -3.585000000       0.526409534
   -3.575000000       0.525553714
   -3.565000000       0.524698309
   -3.555000000       0.523843339
   -3.545000000       0.522988824
   -3.535000000       0.522134786
   -3.525000000       0.521281245
   -3.515000000       0.520428221
   -3.505000000       0.519575735
   -3.495000000       0.518723807
   -3.485000000       0.517872458
   -3.475000000       0.517021707
   -3.465000000       0.516171575
   -3.455000000       0.515322082
   -3.445000000       0.514473248
   -3.435000000       0.513625093
   -3.425000000       0.512777637
   -3.415000000       0.511930899
   -3.405000000       0.511084899
   -3.395000000       0.510239656
   -3.385000000       0.509395191
   -3.375000000       0.508551522
   -3.365000000       0.507708669
   -3.355000000       0.506866650
   -3.345000000       0.506025485
   -3.335000000       0.505185192
   -3.325000000       0.504345790
   -3.315000000       0.503507298
   -3.305000000       0.502669735
   -3.295000000       0.501833117
   -3.285000000       0.500997465
   -3.275000000       0.500162795
   -3.265000000       0.499329125
   -3.255000000       0.498496474
   -3.245000000       0.497664858
   -3.235000000       0.496834296
   -3.225000000       0.496004805
   -3.215000000       0.495176401
   -3.205000000       0.494349102
   -3.195000000       0.493522924
   -3.185000000       0.492697884
   -3.175000000       0.491873999
   -3.165000000       0.491051284
   -3.155000000       0.490229757
   -3.145000000       0.489409432
   -3.135000000       0.488590327
   -3.125000000       0.487772455
   -3.115000000       0.486955834
   -3.105000000       0.486140477
   -3.095000000       0.485326401
   -3.085000000       0.484513620
   -3.075000000       0.483702149
   -3.065000000       0.482892003
   -3.055000000       0.482083195
   -3.045000000       0.481275741
   -3.035000000       0.480469653
   -3.025000000       0.479664947
   -3.015000000       0.478861635
   -3.005000000       0.478059732
   -2.995000000       0.477259250
   -2.985000000       0.476460203
   -2.975000000       0.475662603
   -2.965000000       0.474866463
   -2.955000000       0.474071797
   -2.945000000       0.473278616
   -2.935000000       0.472486932
   -2.925000000       0.471696758
   -2.915000000       0.470908105
   -2.905000000       0.470120985
   -2.895000000       0.469335410
   -2.885000000       0.468551390
   -2.875000000       0.467768938
   -2.865000000       0.466988063
   -2.855000000       0.466208777
   -2.845000000       0.465431090
   -2.835000000       0.464655013
   -2.825000000       0.463880555
   -2.815000000       0.463107728
   -2.805000000       0.462336539
   -2.795000000       0.461567001
   -2.785000000       0.460799121
   -2.775000000       0.460032909
   -2.765000000       0.459268374
   -2.755000000       0.458505525
   -2.745000000       0.457744372
   -2.735000000       0.456984922
   -2.725000000       0.456227183
   -2.715000000       0.455471166
   -2.705000000       0.454716876
   -2.695000000       0.453964323
   -2.685000000       0.453213514
   -2.675000000       0.452464456
   -2.665000000       0.451717157
   -2.655000000       0.450971624
   -2.645000000       0.450227865
   -2.635000000       0.449485886
   -2.625000000       0.448745694
   -2.615000000       0.448007295
   -2.605000000       0.447270697
   -2.595000000       0.446535904
   -2.585000000       0.445802924
   -2.575000000       0.445071762
   -2.565000000       0.444342424
   -2.555000000       0.443614915
   -2.545000000       0.442889242
   -2.535000000       0.442165409
   -2.525000000       0.441443422
   -2.515000000       0.440723285
   -2.505000000       0.440005004
   -2.495000000       0.439288583
   -2.485000000       0.438574026
   -2.475000000       0.437861339
   -2.465000000       0.437150525
   -2.455000000       0.436441589
   -2.445000000       0.435734535
   -2.435000000       0.435029366
   -2.425000000       0.434326086
   -2.415000000       0.433624699
   -2.405000000       0.432925208
   -2.395000000       0.432227617
   -2.385000000       0.431531928
   -2.375000000       0.430838145
   -2.365000000       0.430146271
   -2.355000000       0.429456308
   -2.345000000       0.428768259
   -2.335000000       0.428082127
   -2.325000000       0.427397914
   -2.315000000       0.426715622
   -2.305000000       0.426035253
   -2.295000000       0.425356810
   -2.285000000       0.424680295
   -2.275000000       0.424005709
   -2.265000000       0.423333053
   -2.255000000       0.422662330
   -2.245000000       0.421993541
   -2.235000000       0.421326688
   -2.225000000       0.420661770
   -2.215000000       0.419998791
   -2.205000000       0.419337750
   -2.195000000       0.418678649
   -2.185000000       0.418021489
   -2.175000000       0.417366270
   -2.165000000       0.416712995
   -2.155000000       0.416061670
   -2.145000000       0.415412367
   -2.135000000       0.414765463
   -2.125000000       0.414119332
   -2.115000000       0.413475743
   -2.105000000       0.412834116
   -2.095000000       0.412194434
   -2.085000000       0.411556697
   -2.075000000       0.410920903
   -2.065000000       0.410287051
   -2.055000000       0.409655141
   -2.045000000       0.409025173
   -2.035000000       0.408397145
   -2.025000000       0.407771057
   -2.015000000       0.407146908
   -2.005000000       0.406524697
   -1.995000000       0.405904423
   -1.985000000       0.405286086
   -1.975000000       0.404669684
   -1.965000000       0.404055216
   -1.955000000       0.403442680
   -1.945000000       0.402832076
   -1.935000000       0.402223401
   -1.925000000       0.401616656
   -1.915000000       0.401011837
   -1.905000000       0.400408943
   -1.895000000       0.399807973
   -1.885000000       0.399208924
   -1.875000000       0.398611796
   -1.865000000       0.398016585
   -1.855000000       0.397423291
   -1.845000000       0.396831911
   -1.835000000       0.396242443
   -1.825000000       0.395654885
   -1.815000000       0.395069234
   -1.805000000       0.394485489
   -1.795000000       0.393903647
   -1.785000000       0.393323705
   -1.775000000       0.392745662
   -1.765000000       0.392169515
   -1.755000000       0.391595261
   -1.745000000       0.391022898
   -1.735000000       0.390452422
   -1.725000000       0.389883832
   -1.715000000       0.389317125
   -1.705000000       0.388752297
   -1.695000000       0.388189347
   -1.685000000       0.387628270
   -1.675000000       0.387069064
   -1.665000000       0.386511727
   -1.655000000       0.385956255
   -1.645000000       0.385402645
   -1.635000000       0.384850894
   -1.625000000       0.384300998
   -1.615000000       0.383752956
   -1.605000000       0.383206762
   -1.595000000       0.382662415
   -1.585000000       0.382119911
   -1.575000000       0.381579246
   -1.565000000       0.381040417
   -1.555000000       0.380503421
   -1.545000000       0.379968254
   -1.535000000       0.379434913
   -1.525000000       0.378903394
   -1.515000000       0.378373694
   -1.505000000       0.377845809
   -1.495000000       0.377319736
   -1.485000000       0.376795471
   -1.475000000       0.376273009
   -1.465000000       0.375752349
   -1.455000000       0.375233485
   -1.445000000       0.374716414
   -1.435000000       0.374201132
   -1.425000000       0.373687636
   -1.415000000       0.373175922
   -1.405000000       0.372665985
   -1.395000000       0.372157822
   -1.385000000       0.371651430
   -1.375000000       0.371146803
   -1.365000000       0.370643939
   -1.355000000       0.370142833
   -1.345000000       0.369643481
   -1.335000000       0.369145880
   -1.325000000       0.368650024
   -1.315000000       0.368155911
   -1.305000000       0.367663536
   -1.295000000       0.367172895
   -1.285000000       0.366683984
   -1.275000000       0.366196799
   -1.265000000       0.365711336
   -1.255000000       0.365227590
   -1.245000000       0.364745558
   -1.235000000       0.364265235
   -1.225000000       0.363786617
   -1.215000000       0.363309700
   -1.205000000       0.362834480
   -1.195000000       0.362360952
   -1.185000000       0.361889113
   -1.175000000       0.361418958
   -1.165000000       0.360950482
   -1.155000000       0.360483682
   -1.145000000       0.360018553
   -1.135000000       0.359555092
   -1.125000000       0.359093293
   -1.115000000       0.358633152
   -1.105000000       0.358174666
   -1.095000000       0.357717830
   -1.085000000       0.357262639
   -1.075000000       0.356809089
   -1.065000000       0.356357176
   -1.055000000       0.355906896
   -1.045000000       0.355458244
   -1.035000000       0.355011215
   -1.025000000       0.354565807
   -1.015000000       0.354122013
   -1.005000000       0.353679831
   -0.995000000       0.353239255
   -0.985000000       0.352800280
   -0.975000000       0.352362904
   -0.965000000       0.351927121
   -0.955000000       0.351492928
   -0.945000000       0.351060318
   -0.935000000       0.350629290
   -0.925000000       0.350199837
   -0.915000000       0.349771956
   -0.905000000       0.349345641
   -0.895000000       0.348920890
   -0.885000000       0.348497698
   -0.875000000       0.348076059
   -0.865000000       0.347655970
   -0.855000000       0.347237427
   -0.845000000       0.346820424
   -0.835000000       0.346404959
   -0.825000000       0.345991025
   -0.815000000       0.345578620
   -0.805000000       0.345167738
   -0.795000000       0.344758376
   -0.785000000       0.344350528
   -0.775000000       0.343944191
   -0.765000000       0.343539360
   -0.755000000       0.343136032
   -0.745000000       0.342734201
   -0.735000000       0.342333863
   -0.725000000       0.341935014
   -0.715000000       0.341537650
   -0.705000000       0.341141766
   -0.695000000       0.340747358
   -0.685000000       0.340354422
   -0.675000000       0.339962953
   -0.665000000       0.339572947
   -0.655000000       0.339184401
   -0.645000000       0.338797309
   -0.635000000       0.338411667
   -0.625000000       0.338027472
   -0.615000000       0.337644718
   -0.605000000       0.337263402
   -0.595000000       0.336883520
   -0.585000000       0.336505066
   -0.575000000       0.336128038
   -0.565000000       0.335752430
   -0.555000000       0.335378238
   -0.545000000       0.335005460
   -0.535000000       0.334634089
   -0.525000000       0.334264122
   -0.515000000       0.333895555
   -0.505000000       0.333528383
   -0.495000000       0.333162604
   -0.485000000       0.332798211
   -0.475000000       0.332435202
   -0.465000000       0.332073571
   -0.455000000       0.331713316
   -0.445000000       0.331354432
   -0.435000000       0.330996914
   -0.425000000       0.330640759
   -0.415000000       0.330285963
   -0.405000000       0.329932521
   -0.395000000       0.329580430
   -0.385000000       0.329229686
   -0.375000000       0.328880283
   -0.365000000       0.328532220
   -0.355000000       0.328185490
   -0.345000000       0.327840091
   -0.335000000       0.327496019
   -0.325000000       0.327153269
   -0.315000000       0.326811837
   -0.305000000       0.326471721
   -0.295000000       0.326132914
   -0.285000000       0.325795415
   -0.275000000       0.325459218
   -0.265000000       0.325124320
   -0.255000000       0.324790717
   -0.245000000       0.324458405
   -0.235000000       0.324127380
   -0.225000000       0.323797639
   -0.215000000       0.323469177
   -0.205000000       0.323141991
   -0.195000000       0.322816076
   -0.185000000       0.322491430
   -0.175000000       0.322168048
   -0.165000000       0.321845927
   -0.155000000       0.321525062
   -0.145000000       0.321205450
   -0.135000000       0.320887087
   -0.125000000       0.320569970
   -0.115000000       0.320254095
   -0.105000000       0.319939457
   -0.095000000       0.319626054
   -0.085000000       0.319313881
   -0.075000000       0.319002936
   -0.065000000       0.318693214
   -0.055000000       0.318384711
   -0.045000000       0.318077425
   -0.035000000       0.317771351
   -0.025000000       0.317466486
   -0.015000000       0.317162826
   -0.005000000       0.316860368
    0.005000000       0.316559108
    0.015000000       0.316259042
    0.025000000       0.315960168
    0.035000000       0.315662481
    0.045000000       0.315365978
    0.055000000       0.315070655
    0.065000000       0.314776510
    0.075000000       0.314483538
    0.085000000       0.314191736
    0.095000000       0.313901101
    0.105000000       0.313611629
    0.115000000       0.313323317
    0.125000000       0.313036161
    0.135000000       0.312750158
    0.145000000       0.312465305
    0.155000000       0.312181598
    0.165000000       0.311899034
    0.175000000       0.311617610
    0.185000000       0.311337322
    0.195000000       0.311058167
    0.205000000       0.310780142
    0.215000000       0.310503243
    0.225000000       0.310227467
    0.235000000       0.309952811
    0.245000000       0.309679272
    0.255000000       0.309406846
    0.265000000       0.309135531
    0.275000000       0.308865322
    0.285000000       0.308596218
    0.295000000       0.308328214
    0.305000000       0.308061307
    0.315000000       0.307795495
    0.325000000       0.307530775
    0.335000000       0.307267142
    0.345000000       0.307004595
    0.355000000       0.306743129
    0.365000000       0.306482743
    0.375000000       0.306223432
    0.385000000       0.305965194
    0.395000000       0.305708026
    0.405000000       0.305451925
    0.415000000       0.305196888
    0.425000000       0.304942911
    0.435000000       0.304689992
    0.445000000       0.304438128
    0.455000000       0.304187316
    0.465000000       0.303937553
    0.475000000       0.303688837
    0.485000000       0.303441163
    0.495000000       0.303194529
    0.505000000       0.302948933
    0.515000000       0.302704372
    0.525000000       0.302460842
    0.535000000       0.302218341
    0.545000000       0.301976872
    0.555000000       0.301736415
    0.565000000       0.301496984
    0.575000000       0.301258571
    0.585000000       0.301021172
    0.595000000       0.300784786
    0.605000000       0.300549410
    0.615000000       0.300315039
    0.625000000       0.300081673
    0.635000000       0.299849309
    0.645000000       0.299617943
    0.655000000       0.299387573
    0.665000000       0.299158196
    0.675000000       0.298929810
    0.685000000       0.298702412
    0.695000000       0.298475999
    0.705000000       0.298250569
    0.715000000       0.298026120
    0.725000000       0.297802648
    0.735000000       0.297580151
    0.745000000       0.297358627
    0.755000000       0.297138073
    0.765000000       0.296918486
    0.775000000       0.296699865
    0.785000000       0.296482206
    0.795000000       0.296265507
    0.805000000       0.296049765
    0.815000000       0.295834979
    0.825000000       0.295621146
    0.835000000       0.295408262
    0.845000000       0.295196327
    0.855000000       0.294985342
    0.865000000       0.294775046
    0.875000000       0.294566184
    0.885000000       0.294358017
    0.895000000       0.294150785
    0.905000000       0.293944487
    0.915000000       0.293739121
    0.925000000       0.293534683
    0.935000000       0.293331172
    0.945000000       0.293128586
    0.955000000       0.292926922
    0.965000000       0.292726178
    0.975000000       0.292526352
    0.985000000       0.292327441
    0.995000000       0.292129444
    1.005000000       0.291932358
    1.015000000       0.291736181
    1.025000000       0.291540910
    1.035000000       0.291346544
    1.045000000       0.291153081
    1.055000000       0.290960518
    1.065000000       0.290768853
    1.075000000       0.290578084
    1.085000000       0.290388209
    1.095000000       0.290199226
    1.105000000       0.290011133
    1.115000000       0.289823928
    1.125000000       0.289637608
    1.135000000       0.289452173
    1.145000000       0.289267619
    1.155000000       0.289083944
    1.165000000       0.288901148
    1.175000000       0.288719227
    1.185000000       0.288538180
    1.195000000       0.288358004
    1.205000000       0.288178699
    1.215000000       0.288000261
    1.225000000       0.287822690
    1.235000000       0.287645983
    1.245000000       0.287470138
    1.255000000       0.287295153
    1.265000000       0.287121027
    1.275000000       0.286947757
    1.285000000       0.286775343
    1.295000000       0.286603781
    1.305000000       0.286433070
    1.315000000       0.286263209
    1.325000000       0.286094195
    1.335000000       0.285926028
    1.345000000       0.285758704
    1.355000000       0.285592222
    1.365000000       0.285426581
    1.375000000       0.285261779
    1.385000000       0.285097814
    1.395000000       0.284934684
    1.405000000       0.284772388
    1.415000000       0.284610924
    1.425000000       0.284450291
    1.435000000       0.284290486
    1.445000000       0.284131508
    1.455000000       0.283973356
    1.465000000       0.283816027
    1.475000000       0.283659521
    1.485000000       0.283503835
    1.495000000       0.283348968
    1.505000000       0.283194919
    1.515000000       0.283041686
    1.525000000       0.282889267
    1.535000000       0.282737661
    1.545000000       0.282586866
    1.555000000       0.282436881
    1.565000000       0.282287704
    1.575000000       0.282139335
    1.585000000       0.281991770
    1.595000000       0.281845010
    1.605000000       0.281699052
    1.615000000       0.281553895
    1.625000000       0.281409537
    1.635000000       0.281265978
    1.645000000       0.281123215
    1.655000000       0.280981248
    1.665000000       0.280840075
    1.675000000       0.280699695
    1.685000000       0.280560106
    1.695000000       0.280421307
    1.705000000       0.280283296
    1.715000000       0.280146073
    1.725000000       0.280009635
    1.735000000       0.279873983
    1.745000000       0.279739114
    1.755000000       0.279605028
    1.765000000       0.279471722
    1.775000000       0.279339196
    1.785000000       0.279207448
    1.795000000       0.279076477
    1.805000000       0.278946283
    1.815000000       0.278816863
    1.825000000       0.278688217
    1.835000000       0.278560343
    1.845000000       0.278433241
    1.855000000       0.278306909
    1.865000000       0.278181345
    1.875000000       0.278056550
    1.885000000       0.277932521
    1.895000000       0.277809258
    1.905000000       0.277686760
    1.915000000       0.277565025
    1.925000000       0.277444053
    1.935000000       0.277323841
    1.945000000       0.277204390
    1.955000000       0.277085699
    1.965000000       0.276967766
    1.975000000       0.276850589
    1.985000000       0.276734170
    1.995000000       0.276618505
    2.005000000       0.276503594
    2.015000000       0.276389437
    2.025000000       0.276276033
    2.035000000       0.276163379
    2.045000000       0.276051477
    2.055000000       0.275940323
    2.065000000       0.275829919
    2.075000000       0.275720262
    2.085000000       0.275611352
    2.095000000       0.275503188
    2.105000000       0.275395769
    2.115000000       0.275289095
    2.125000000       0.275183164
    2.135000000       0.275077975
    2.145000000       0.274973529
    2.155000000       0.274869823
    2.165000000       0.274766858
    2.175000000       0.274664632
    2.185000000       0.274563145
    2.195000000       0.274462396
    2.205000000       0.274362384
    2.215000000       0.274263109
    2.225000000       0.274164569
    2.235000000       0.274066764
    2.245000000       0.273969694
    2.255000000       0.273873357
    2.265000000       0.273777753
    2.275000000       0.273682882
    2.285000000       0.273588742
    2.295000000       0.273495333
    2.305000000       0.273402655
    2.315000000       0.273310706
    2.325000000       0.273219487
    2.335000000       0.273128996
    2.345000000       0.273039233
    2.355000000       0.272950198
    2.365000000       0.272861890
    2.375000000       0.272774307
    2.385000000       0.272687451
    2.395000000       0.272601320
    2.405000000       0.272515914
    2.415000000       0.272431232
    2.425000000       0.272347274
    2.435000000       0.272264039
    2.445000000       0.272181527
    2.455000000       0.272099738
    2.465000000       0.272018670
    2.475000000       0.271938324
    2.485000000       0.271858699
    2.495000000       0.271779795
    2.505000000       0.271701611
    2.515000000       0.271624147
    2.525000000       0.271547403
    2.535000000       0.271471378
    2.545000000       0.271396071
    2.555000000       0.271321484
    2.565000000       0.271247614
    2.575000000       0.271174463
    2.585000000       0.271102029
    2.595000000       0.271030313
    2.605000000       0.270959313
    2.615000000       0.270889031
    2.625000000       0.270819465
    2.635000000       0.270750615
    2.645000000       0.270682482
    2.655000000       0.270615064
    2.665000000       0.270548362
    2.675000000       0.270482376
    2.685000000       0.270417105
    2.695000000       0.270352549
    2.705000000       0.270288708
    2.715000000       0.270225582
    2.725000000       0.270163171
    2.735000000       0.270101475
    2.745000000       0.270040493
    2.755000000       0.269980226
    2.765000000       0.269920673
    2.775000000       0.269861834
    2.785000000       0.269803710
    2.795000000       0.269746300
    2.805000000       0.269689604
    2.815000000       0.269633622
    2.825000000       0.269578355
    2.835000000       0.269523802
    2.845000000       0.269469963
    2.855000000       0.269416839
    2.865000000       0.269364428
    2.875000000       0.269312733
    2.885000000       0.269261751
    2.895000000       0.269211485
    2.905000000       0.269161933
    2.915000000       0.269113096
    2.925000000       0.269064973
    2.935000000       0.269017566
    2.945000000       0.268970874
    2.955000000       0.268924898
    2.965000000       0.268879637
    2.975000000       0.268835092
    2.985000000       0.268791263
    2.995000000       0.268748150
    3.005000000       0.268705753
    3.015000000       0.268664073
    3.025000000       0.268623111
    3.035000000       0.268582865
    3.045000000       0.268543337
    3.055000000       0.268504527
    3.065000000       0.268466434
    3.075000000       0.268429061
    3.085000000       0.268392406
    3.095000000       0.268356470
    3.105000000       0.268321254
    3.115000000       0.268286758
    3.125000000       0.268252982
    3.135000000       0.268219927
    3.145000000       0.268187593
    3.155000000       0.268155981
    3.165000000       0.268125090
    3.175000000       0.268094922
    3.185000000       0.268065478
    3.195000000       0.268036756
    3.205000000       0.268008759
    3.215000000       0.267981486
    3.225000000       0.267954939
    3.235000000       0.267929117
    3.245000000       0.267904021
    3.255000000       0.267879652
    3.265000000       0.267856010
    3.275000000       0.267833097
    3.285000000       0.267810912
    3.295000000       0.267789456
    3.305000000       0.267768730
    3.315000000       0.267748735
    3.325000000       0.267729471
    3.335000000       0.267710939
    3.345000000       0.267693140
    3.355000000       0.267676074
    3.365000000       0.267659743
    3.375000000       0.267644146
    3.385000000       0.267629285
    3.395000000       0.267615161
    3.405000000       0.267601774
    3.415000000       0.267589126
    3.425000000       0.267577216
    3.435000000       0.267566046
    3.445000000       0.267555617
    3.455000000       0.267545930
    3.465000000       0.267536985
    3.475000000       0.267528784
    3.485000000       0.267521327
    3.495000000       0.267514616
    3.505000000       0.267508650
    3.515000000       0.267503433
    3.525000000       0.267498963
    3.535000000       0.267495243
    3.545000000       0.267492274
    3.555000000       0.267490056
    3.565000000       0.267488590
    3.575000000       0.267487878
    3.585000000       0.267487921
    3.595000000       0.267488720
    3.605000000       0.267490276
    3.615000000       0.267492590
    3.625000000       0.267495663
    3.635000000       0.267499497
    3.645000000       0.267504093
    3.655000000       0.267509451
    3.665000000       0.267515574
    3.675000000       0.267522463
    3.685000000       0.267530118
    3.695000000       0.267538542
    3.705000000       0.267547734
    3.715000000       0.267557698
    3.725000000       0.267568434
    3.735000000       0.267579943
    3.745000000       0.267592228
    3.755000000       0.267605288
    3.765000000       0.267619127
    3.775000000       0.267633744
    3.785000000       0.267649143
    3.795000000       0.267665324
    3.805000000       0.267682288
    3.815000000       0.267700038
    3.825000000       0.267718574
    3.835000000       0.267737899
    3.845000000       0.267758014
    3.855000000       0.267778921
    3.865000000       0.267800620
    3.875000000       0.267823115
    3.885000000       0.267846406
    3.895000000       0.267870496
    3.905000000       0.267895386
    3.915000000       0.267921077
    3.925000000       0.267947572
    3.935000000       0.267974872
    3.945000000       0.268002979
    3.955000000       0.268031896
    3.965000000       0.268061623
    3.975000000       0.268092162
    3.985000000       0.268123517
    3.995000000       0.268155687
    4.005000000       0.268188677
    4.015000000       0.268222486
    4.025000000       0.268257118
    4.035000000       0.268292574
    4.045000000       0.268328857
    4.055000000       0.268365968
    4.065000000       0.268403910
    4.075000000       0.268442684
    4.085000000       0.268482294
    4.095000000       0.268522740
    4.105000000       0.268564025
    4.115000000       0.268606151
    4.125000000       0.268649121
    4.135000000       0.268692937
    4.145000000       0.268737601
    4.155000000       0.268783115
    4.165000000       0.268829482
    4.175000000       0.268876704
    4.185000000       0.268924784
    4.195000000       0.268973723
    4.205000000       0.269023524
    4.215000000       0.269074190
    4.225000000       0.269125724
    4.235000000       0.269178127
    4.245000000       0.269231402
    4.255000000       0.269285552
    4.265000000       0.269340580
    4.275000000       0.269396487
    4.285000000       0.269453278
    4.295000000       0.269510953
    4.305000000       0.269569517
    4.315000000       0.269628971
    4.325000000       0.269689320
    4.335000000       0.269750564
    4.345000000       0.269812707
    4.355000000       0.269875753
    4.365000000       0.269939704
    4.375000000       0.270004562
    4.385000000       0.270070331
    4.395000000       0.270137014
    4.405000000       0.270204614
    4.415000000       0.270273133
    4.425000000       0.270342576
    4.435000000       0.270412944
    4.445000000       0.270484241
    4.455000000       0.270556471
    4.465000000       0.270629636
    4.475000000       0.270703740
    4.485000000       0.270778786
    4.495000000       0.270854777
    4.505000000       0.270931717
    4.515000000       0.271009609
    4.525000000       0.271088456
    4.535000000       0.271168262
    4.545000000       0.271249031
    4.555000000       0.271330765
    4.565000000       0.271413468
    4.575000000       0.271497145
    4.585000000       0.271581798
    4.595000000       0.271667431
    4.605000000       0.271754048
    4.615000000       0.271841653
    4.625000000       0.271930249
    4.635000000       0.272019840
    4.645000000       0.272110431
    4.655000000       0.272202024
    4.665000000       0.272294624
    4.675000000       0.272388235
    4.685000000       0.272482861
    4.695000000       0.272578506
    4.705000000       0.272675174
    4.715000000       0.272772869
    4.725000000       0.272871595
    4.735000000       0.272971357
    4.745000000       0.273072158
    4.755000000       0.273174004
    4.765000000       0.273276898
    4.775000000       0.273380845
    4.785000000       0.273485849
    4.795000000       0.273591914
    4.805000000       0.273699046
    4.815000000       0.273807249
    4.825000000       0.273916526
    4.835000000       0.274026885
    4.845000000       0.274138327
    4.855000000       0.274250860
    4.865000000       0.274364486
    4.875000000       0.274479212
    4.885000000       0.274595042
    4.895000000       0.274711981
    4.905000000       0.274830034
    4.915000000       0.274949206
    4.925000000       0.275069502
    4.935000000       0.275190928
    4.945000000       0.275313488
    4.955000000       0.275437188
    4.965000000       0.275562033
    4.975000000       0.275688029
    4.985000000       0.275815181
    4.995000000       0.275943494
    5.005000000       0.276072974
    5.015000000       0.276203626
    5.025000000       0.276335457
    5.035000000       0.276468472
    5.045000000       0.276602676
    5.055000000       0.276738076
    5.065000000       0.276874677
    5.075000000       0.277012486
    5.085000000       0.277151507
    5.095000000       0.277291749
    5.105000000       0.277433216
    5.115000000       0.277575914
    5.125000000       0.277719851
    5.135000000       0.277865032
    5.145000000       0.278011464
    5.155000000       0.278159152
    5.165000000       0.278308105
    5.175000000       0.278458328
    5.185000000       0.278609828
    5.195000000       0.278762611
    5.205000000       0.278916685
    5.215000000       0.279072056
    5.225000000       0.279228732
    5.235000000       0.279386719
    5.245000000       0.279546024
    5.255000000       0.279706654
    5.265000000       0.279868618
    5.275000000       0.280031922
    5.285000000       0.280196573
    5.295000000       0.280362579
    5.305000000       0.280529947
    5.315000000       0.280698686
    5.325000000       0.280868802
    5.335000000       0.281040304
    5.345000000       0.281213200
    5.355000000       0.281387497
    5.365000000       0.281563203
    5.375000000       0.281740327
    5.385000000       0.281918877
    5.395000000       0.282098861
[...]
   26.015000000       0.000000032
   26.025000000       0.000000032
   26.035000000       0.000000032
   26.045000000       0.000000032
   26.055000000       0.000000032
   26.065000000       0.000000032
   26.075000000       0.000000032
   26.085000000       0.000000032
   26.095000000       0.000000032
   26.105000000       0.000000032
   26.115000000       0.000000032
   26.125000000       0.000000032
   26.135000000       0.000000032
   26.145000000       0.000000032
   26.155000000       0.000000032
   26.165000000       0.000000032
   26.175000000       0.000000031
   26.185000000       0.000000031
   26.195000000       0.000000031
   26.205000000       0.000000031
   26.215000000       0.000000031
   26.225000000       0.000000031
   26.235000000       0.000000031
   26.245000000       0.000000031
   26.255000000       0.000000031
   26.265000000       0.000000031
   26.275000000       0.000000031
   26.285000000       0.000000031
   26.295000000       0.000000031
   26.305000000       0.000000031
   26.315000000       0.000000031
   26.325000000       0.000000031
   26.335000000       0.000000031
   26.345000000       0.000000031
   26.355000000       0.000000031
   26.365000000       0.000000030
   26.375000000       0.000000030
   26.385000000       0.000000030
   26.395000000       0.000000030
   26.405000000       0.000000030
   26.415000000       0.000000030
   26.425000000       0.000000030
   26.435000000       0.000000030
   26.445000000       0.000000030
   26.455000000       0.000000030
   26.465000000       0.000000030
   26.475000000       0.000000030
   26.485000000       0.000000030
   26.495000000       0.000000030
   26.505000000       0.000000030
   26.515000000       0.000000030
   26.525000000       0.000000030
   26.535000000       0.000000030
   26.545000000       0.000000030
   26.555000000       0.000000029
   26.565000000       0.000000029
   26.575000000       0.000000029
   26.585000000       0.000000029
   26.595000000       0.000000029
   26.605000000       0.000000029
   26.615000000       0.000000029
   26.625000000       0.000000029
   26.635000000       0.000000029
   26.645000000       0.000000029
   26.655000000       0.000000029
   26.665000000       0.000000029
   26.675000000       0.000000029
   26.685000000       0.000000029
   26.695000000       0.000000029
   26.705000000       0.000000029
   26.715000000       0.000000029
   26.725000000       0.000000029
   26.735000000       0.000000029
   26.745000000       0.000000029
   26.755000000       0.000000028
   26.765000000       0.000000028
   26.775000000       0.000000028
   26.785000000       0.000000028
   26.795000000       0.000000028
   26.805000000       0.000000028
   26.815000000       0.000000028
   26.825000000       0.000000028
   26.835000000       0.000000028
   26.845000000       0.000000028
   26.855000000       0.000000028
   26.865000000       0.000000028
   26.875000000       0.000000028
   26.885000000       0.000000028
   26.895000000       0.000000028
   26.905000000       0.000000028
   26.915000000       0.000000028
   26.925000000       0.000000028
   26.935000000       0.000000028
   26.945000000       0.000000028
   26.955000000       0.000000028
   26.965000000       0.000000027
   26.975000000       0.000000027
   26.985000000       0.000000027
   26.995000000       0.000000027
   27.005000000       0.000000027
   27.015000000       0.000000027
   27.025000000       0.000000027
   27.035000000       0.000000027
   27.045000000       0.000000027
   27.055000000       0.000000027
   27.065000000       0.000000027
   27.075000000       0.000000027
   27.085000000       0.000000027
   27.095000000       0.000000027
   27.105000000       0.000000027
   27.115000000       0.000000027
   27.125000000       0.000000027
   27.135000000       0.000000027
   27.145000000       0.000000027
   27.155000000       0.000000027
   27.165000000       0.000000027
   27.175000000       0.000000027
   27.185000000       0.000000026
   27.195000000       0.000000026
   27.205000000       0.000000026
   27.215000000       0.000000026
   27.225000000       0.000000026
   27.235000000       0.000000026
   27.245000000       0.000000026
   27.255000000       0.000000026
   27.265000000       0.000000026
   27.275000000       0.000000026
   27.285000000       0.000000026
   27.295000000       0.000000026
   27.305000000       0.000000026
   27.315000000       0.000000026
   27.325000000       0.000000026
   27.335000000       0.000000026
   27.345000000       0.000000026
   27.355000000       0.000000026
   27.365000000       0.000000026
   27.375000000       0.000000026
   27.385000000       0.000000026
   27.395000000       0.000000026
   27.405000000       0.000000026
   27.415000000       0.000000025
   27.425000000       0.000000025
   27.435000000       0.000000025
   27.445000000       0.000000025
   27.455000000       0.000000025
   27.465000000       0.000000025
   27.475000000       0.000000025
   27.485000000       0.000000025
   27.495000000       0.000000025
   27.505000000       0.000000025
   27.515000000       0.000000025
   27.525000000       0.000000025
   27.535000000       0.000000025
   27.545000000       0.000000025
   27.555000000       0.000000025
   27.565000000       0.000000025
   27.575000000       0.000000025
   27.585000000       0.000000025
   27.595000000       0.000000025
   27.605000000       0.000000025
   27.615000000       0.000000025
   27.625000000       0.000000025
   27.635000000       0.000000025
   27.645000000       0.000000025
   27.655000000       0.000000024
   27.665000000       0.000000024
   27.675000000       0.000000024
   27.685000000       0.000000024
   27.695000000       0.000000024
   27.705000000       0.000000024
   27.715000000       0.000000024
   27.725000000       0.000000024
   27.735000000       0.000000024
   27.745000000       0.000000024
   27.755000000       0.000000024
   27.765000000       0.000000024
   27.775000000       0.000000024
   27.785000000       0.000000024
   27.795000000       0.000000024
   27.805000000       0.000000024
   27.815000000       0.000000024
   27.825000000       0.000000024
   27.835000000       0.000000024
   27.845000000       0.000000024
   27.855000000       0.000000024
   27.865000000       0.000000024
   27.875000000       0.000000024
   27.885000000       0.000000024
   27.895000000       0.000000024
   27.905000000       0.000000024
   27.915000000       0.000000023
   27.925000000       0.000000023
   27.935000000       0.000000023
   27.945000000       0.000000023
   27.955000000       0.000000023
   27.965000000       0.000000023
   27.975000000       0.000000023
   27.985000000       0.000000023
   27.995000000       0.000000023
   28.005000000       0.000000023
   28.015000000       0.000000023
   28.025000000       0.000000023
   28.035000000       0.000000023
   28.045000000       0.000000023
   28.055000000       0.000000023
   28.065000000       0.000000023
   28.075000000       0.000000023
   28.085000000       0.000000023
   28.095000000       0.000000023
   28.105000000       0.000000023
   28.115000000       0.000000023
   28.125000000       0.000000023
   28.135000000       0.000000023
   28.145000000       0.000000023
   28.155000000       0.000000023
   28.165000000       0.000000023
   28.175000000       0.000000023
   28.185000000       0.000000022
   28.195000000       0.000000022
   28.205000000       0.000000022
   28.215000000       0.000000022
   28.225000000       0.000000022
   28.235000000       0.000000022
   28.245000000       0.000000022
   28.255000000       0.000000022
   28.265000000       0.000000022
   28.275000000       0.000000022
   28.285000000       0.000000022
   28.295000000       0.000000022
   28.305000000       0.000000022
   28.315000000       0.000000022
   28.325000000       0.000000022
   28.335000000       0.000000022
   28.345000000       0.000000022
   28.355000000       0.000000022
   28.365000000       0.000000022
   28.375000000       0.000000022
   28.385000000       0.000000022
   28.395000000       0.000000022
   28.405000000       0.000000022
   28.415000000       0.000000022
   28.425000000       0.000000022
   28.435000000       0.000000022
   28.445000000       0.000000022
   28.455000000       0.000000022
   28.465000000       0.000000021
   28.475000000       0.000000021
   28.485000000       0.000000021
   28.495000000       0.000000021
   28.505000000       0.000000021
   28.515000000       0.000000021
   28.525000000       0.000000021
   28.535000000       0.000000021
   28.545000000       0.000000021
   28.555000000       0.000000021
   28.565000000       0.000000021
   28.575000000       0.000000021
   28.585000000       0.000000021
   28.595000000       0.000000021
   28.605000000       0.000000021
   28.615000000       0.000000021
   28.625000000       0.000000021
   28.635000000       0.000000021
   28.645000000       0.000000021
   28.655000000       0.000000021
   28.665000000       0.000000021
   28.675000000       0.000000021
   28.685000000       0.000000021
   28.695000000       0.000000021
   28.705000000       0.000000021
   28.715000000       0.000000021
   28.725000000       0.000000021
   28.735000000       0.000000021
   28.745000000       0.000000021
   28.755000000       0.000000021
   28.765000000       0.000000021
   28.775000000       0.000000020
   28.785000000       0.000000020
   28.795000000       0.000000020
   28.805000000       0.000000020
   28.815000000       0.000000020
   28.825000000       0.000000020
   28.835000000       0.000000020
   28.845000000       0.000000020
   28.855000000       0.000000020
   28.865000000       0.000000020
   28.875000000       0.000000020
   28.885000000       0.000000020
   28.895000000       0.000000020
   28.905000000       0.000000020
   28.915000000       0.000000020
   28.925000000       0.000000020
   28.935000000       0.000000020
   28.945000000       0.000000020
   28.955000000       0.000000020
   28.965000000       0.000000020
   28.975000000       0.000000020
   28.985000000       0.000000020
   28.995000000       0.000000020
   29.005000000       0.000000020
   29.015000000       0.000000020
   29.025000000       0.000000020
   29.035000000       0.000000020
   29.045000000       0.000000020
   29.055000000       0.000000020
   29.065000000       0.000000020
   29.075000000       0.000000020
   29.085000000       0.000000020
   29.095000000       0.000000019
   29.105000000       0.000000019
   29.115000000       0.000000019
   29.125000000       0.000000019
   29.135000000       0.000000019
   29.145000000       0.000000019
   29.155000000       0.000000019
   29.165000000       0.000000019
   29.175000000       0.000000019
   29.185000000       0.000000019
   29.195000000       0.000000019
   29.205000000       0.000000019
   29.215000000       0.000000019
   29.225000000       0.000000019
   29.235000000       0.000000019
   29.245000000       0.000000019
   29.255000000       0.000000019
   29.265000000       0.000000019
   29.275000000       0.000000019
   29.285000000       0.000000019
   29.295000000       0.000000019
   29.305000000       0.000000019
   29.315000000       0.000000019
   29.325000000       0.000000019
   29.335000000       0.000000019
   29.345000000       0.000000019
   29.355000000       0.000000019
   29.365000000       0.000000019
   29.375000000       0.000000019
   29.385000000       0.000000019
   29.395000000       0.000000019
   29.405000000       0.000000019
   29.415000000       0.000000019
   29.425000000       0.000000019
   29.435000000       0.000000018
   29.445000000       0.000000018
   29.455000000       0.000000018
   29.465000000       0.000000018
   29.475000000       0.000000018
   29.485000000       0.000000018
   29.495000000       0.000000018
   29.505000000       0.000000018
   29.515000000       0.000000018
   29.525000000       0.000000018
   29.535000000       0.000000018
   29.545000000       0.000000018
   29.555000000       0.000000018
   29.565000000       0.000000018
   29.575000000       0.000000018
   29.585000000       0.000000018
   29.595000000       0.000000018
   29.605000000       0.000000018
   29.615000000       0.000000018
   29.625000000       0.000000018
   29.635000000       0.000000018
   29.645000000       0.000000018
   29.655000000       0.000000018
   29.665000000       0.000000018
   29.675000000       0.000000018
   29.685000000       0.000000018
   29.695000000       0.000000018
   29.705000000       0.000000018
   29.715000000       0.000000018
   29.725000000       0.000000018
   29.735000000       0.000000018
   29.745000000       0.000000018
   29.755000000       0.000000018
   29.765000000       0.000000018
   29.775000000       0.000000018
   29.785000000       0.000000018
   29.795000000       0.000000018
   29.805000000       0.000000017
   29.815000000       0.000000017
   29.825000000       0.000000017
   29.835000000       0.000000017
   29.845000000       0.000000017
   29.855000000       0.000000017
   29.865000000       0.000000017
   29.875000000       0.000000017
   29.885000000       0.000000017
   29.895000000       0.000000017
   29.905000000       0.000000017
   29.915000000       0.000000017
   29.925000000       0.000000017
   29.935000000       0.000000017
   29.945000000       0.000000017
   29.955000000       0.000000017
   29.965000000       0.000000017
   29.975000000       0.000000017
   29.985000000       0.000000017
   29.995000000       0.000000017
   30.005000000       0.000000017
   30.015000000       0.000000017
   30.025000000       0.000000017
   30.035000000       0.000000017
   30.045000000       0.000000017
   30.055000000       0.000000017
   30.065000000       0.000000017
   30.075000000       0.000000017
   30.085000000       0.000000017
   30.095000000       0.000000017
   30.105000000       0.000000017
   30.115000000       0.000000017
   30.125000000       0.000000017
   30.135000000       0.000000017
   30.145000000       0.000000017
   30.155000000       0.000000017
   30.165000000       0.000000017
   30.175000000       0.000000017
   30.185000000       0.000000017
   30.195000000       0.000000017
   30.205000000       0.000000016
   30.215000000       0.000000016
   30.225000000       0.000000016
   30.235000000       0.000000016
   30.245000000       0.000000016
   30.255000000       0.000000016
   30.265000000       0.000000016
   30.275000000       0.000000016
   30.285000000       0.000000016
   30.295000000       0.000000016
   30.305000000       0.000000016
   30.315000000       0.000000016
   30.325000000       0.000000016
   30.335000000       0.000000016
   30.345000000       0.000000016
   30.355000000       0.000000016
   30.365000000       0.000000016
   30.375000000       0.000000016
   30.385000000       0.000000016
   30.395000000       0.000000016
   30.405000000       0.000000016
   30.415000000       0.000000016
   30.425000000       0.000000016
   30.435000000       0.000000016
   30.445000000       0.000000016
   30.455000000       0.000000016
   30.465000000       0.000000016
   30.475000000       0.000000016
   30.485000000       0.000000016
   30.495000000       0.000000016
   30.505000000       0.000000016
   30.515000000       0.000000016
   30.525000000       0.000000016
   30.535000000       0.000000016
   30.545000000       0.000000016
   30.555000000       0.000000016
   30.565000000       0.000000016
   30.575000000       0.000000016
   30.585000000       0.000000016
   30.595000000       0.000000016
   30.605000000       0.000000016
   30.615000000       0.000000016
   30.625000000       0.000000016
   30.635000000       0.000000015
   30.645000000       0.000000015
   30.655000000       0.000000015
   30.665000000       0.000000015
   30.675000000       0.000000015
   30.685000000       0.000000015
   30.695000000       0.000000015
   30.705000000       0.000000015
   30.715000000       0.000000015
   30.725000000       0.000000015
   30.735000000       0.000000015
   30.745000000       0.000000015
   30.755000000       0.000000015
   30.765000000       0.000000015
   30.775000000       0.000000015
   30.785000000       0.000000015
   30.795000000       0.000000015
   30.805000000       0.000000015
   30.815000000       0.000000015
   30.825000000       0.000000015
   30.835000000       0.000000015
   30.845000000       0.000000015
   30.855000000       0.000000015
   30.865000000       0.000000015
   30.875000000       0.000000015
   30.885000000       0.000000015
   30.895000000       0.000000015
   30.905000000       0.000000015
   30.915000000       0.000000015
   30.925000000       0.000000015
   30.935000000       0.000000015
   30.945000000       0.000000015
   30.955000000       0.000000015
   30.965000000       0.000000015
   30.975000000       0.000000015
   30.985000000       0.000000015
   30.995000000       0.000000015
   31.005000000       0.000000015
   31.015000000       0.000000015
   31.025000000       0.000000015
   31.035000000       0.000000015
   31.045000000       0.000000015
   31.055000000       0.000000015
   31.065000000       0.000000015
   31.075000000       0.000000015
   31.085000000       0.000000015
   31.095000000       0.000000014
   31.105000000       0.000000014
   31.115000000       0.000000014
   31.125000000       0.000000014
   31.135000000       0.000000014
   31.145000000       0.000000014
   31.155000000       0.000000014
   31.165000000       0.000000014
   31.175000000       0.000000014
   31.185000000       0.000000014
   31.195000000       0.000000014
   31.205000000       0.000000014
   31.215000000       0.000000014
   31.225000000       0.000000014
   31.235000000       0.000000014
   31.245000000       0.000000014
   31.255000000       0.000000014
   31.265000000       0.000000014
   31.275000000       0.000000014
   31.285000000       0.000000014
   31.295000000       0.000000014
   31.305000000       0.000000014
   31.315000000       0.000000014
   31.325000000       0.000000014
   31.335000000       0.000000014
   31.345000000       0.000000014
   31.355000000       0.000000014
   31.365000000       0.000000014
   31.375000000       0.000000014
   31.385000000       0.000000014
   31.395000000       0.000000014
   31.405000000       0.000000014
   31.415000000       0.000000014
   31.425000000       0.000000014
   31.435000000       0.000000014
   31.445000000       0.000000014
   31.455000000       0.000000014
   31.465000000       0.000000014
   31.475000000       0.000000014
   31.485000000       0.000000014
   31.495000000       0.000000014
   31.505000000       0.000000014
   31.515000000       0.000000014
   31.525000000       0.000000014
   31.535000000       0.000000014
   31.545000000       0.000000014
   31.555000000       0.000000014
   31.565000000       0.000000014
   31.575000000       0.000000014
   31.585000000       0.000000014
   31.595000000       0.000000014
   31.605000000       0.000000013
   31.615000000       0.000000013
   31.625000000       0.000000013
   31.635000000       0.000000013
   31.645000000       0.000000013
   31.655000000       0.000000013
   31.665000000       0.000000013
   31.675000000       0.000000013
   31.685000000       0.000000013
   31.695000000       0.000000013
   31.705000000       0.000000013
   31.715000000       0.000000013
   31.725000000       0.000000013
   31.735000000       0.000000013
   31.745000000       0.000000013
   31.755000000       0.000000013
   31.765000000       0.000000013
   31.775000000       0.000000013
   31.785000000       0.000000013
   31.795000000       0.000000013
   31.805000000       0.000000013
   31.815000000       0.000000013
   31.825000000       0.000000013
   31.835000000       0.000000013
   31.845000000       0.000000013
   31.855000000       0.000000013
   31.865000000       0.000000013
   31.875000000       0.000000013
   31.885000000       0.000000013
