 ## written on 16Sep2020 at 00:44:19 
  -18.105000000       0.999755373
  -18.095000000       0.999923423
  -18.085000000       0.999965946
  -18.075000000       0.999982115
  -18.065000000       0.999989672
  -18.055000000       0.999993672
  -18.045000000       0.999995971
  -18.035000000       0.999997372
  -18.025000000       0.999998260
  -18.015000000       0.999998841
  -18.005000000       0.999999229
  -17.995000000       0.999999492
  -17.985000000       0.999999671
  -17.975000000       0.999999793
  -17.965000000       0.999999875
  -17.955000000       0.999999930
  -17.945000000       0.999999964
  -17.935000000       0.999999985
  -17.925000000       0.999999996
  -17.915000000       1.000000000
  -17.905000000       0.999999999
  -17.895000000       0.999999994
  -17.885000000       0.999999986
  -17.875000000       0.999999977
  -17.865000000       0.999999967
  -17.855000000       0.999999956
  -17.845000000       0.999999945
  -17.835000000       0.999999934
  -17.825000000       0.999999924
  -17.815000000       0.999999913
  -17.805000000       0.999999903
  -17.795000000       0.999999894
  -17.785000000       0.999999885
  -17.775000000       0.999999876
  -17.765000000       0.999999869
  -17.755000000       0.999999862
  -17.745000000       0.999999855
  -17.735000000       0.999999849
  -17.725000000       0.999999843
  -17.715000000       0.999999838
  -17.705000000       0.999999834
  -17.695000000       0.999999830
  -17.685000000       0.999999826
  -17.675000000       0.999999823
  -17.665000000       0.999999821
  -17.655000000       0.999999818
  -17.645000000       0.999999816
  -17.635000000       0.999999815
  -17.625000000       0.999999814
  -17.615000000       0.999999813
  -17.605000000       0.999999812
  -17.595000000       0.999999812
  -17.585000000       0.999999812
  -17.575000000       0.999999812
  -17.565000000       0.999999813
  -17.555000000       0.999999814
  -17.545000000       0.999999815
  -17.535000000       0.999999816
  -17.525000000       0.999999817
  -17.515000000       0.999999819
  -17.505000000       0.999999820
  -17.495000000       0.999999822
  -17.485000000       0.999999824
  -17.475000000       0.999999826
  -17.465000000       0.999999828
  -17.455000000       0.999999830
  -17.445000000       0.999999833
  -17.435000000       0.999999835
  -17.425000000       0.999999838
  -17.415000000       0.999999840
  -17.405000000       0.999999843
  -17.395000000       0.999999845
  -17.385000000       0.999999848
  -17.375000000       0.999999851
  -17.365000000       0.999999854
  -17.355000000       0.999999857
  -17.345000000       0.999999860
  -17.335000000       0.999999862
  -17.325000000       0.999999865
  -17.315000000       0.999999868
  -17.305000000       0.999999871
  -17.295000000       0.999999874
  -17.285000000       0.999999877
  -17.275000000       0.999999880
  -17.265000000       0.999999883
  -17.255000000       0.999999886
  -17.245000000       0.999999889
  -17.235000000       0.999999891
  -17.225000000       0.999999894
  -17.215000000       0.999999897
  -17.205000000       0.999999900
  -17.195000000       0.999999903
  -17.185000000       0.999999905
  -17.175000000       0.999999908
  -17.165000000       0.999999911
  -17.155000000       0.999999914
  -17.145000000       0.999999916
  -17.135000000       0.999999919
  -17.125000000       0.999999921
  -17.115000000       0.999999924
  -17.105000000       0.999999926
  -17.095000000       0.999999929
  -17.085000000       0.999999931
  -17.075000000       0.999999934
  -17.065000000       0.999999936
  -17.055000000       0.999999938
  -17.045000000       0.999999940
  -17.035000000       0.999999943
  -17.025000000       0.999999945
  -17.015000000       0.999999947
  -17.005000000       0.999999949
  -16.995000000       0.999999951
  -16.985000000       0.999999953
  -16.975000000       0.999999955
  -16.965000000       0.999999957
  -16.955000000       0.999999959
  -16.945000000       0.999999960
  -16.935000000       0.999999962
  -16.925000000       0.999999964
  -16.915000000       0.999999965
  -16.905000000       0.999999967
  -16.895000000       0.999999969
  -16.885000000       0.999999970
  -16.875000000       0.999999972
  -16.865000000       0.999999973
  -16.855000000       0.999999974
  -16.845000000       0.999999976
  -16.835000000       0.999999977
  -16.825000000       0.999999978
  -16.815000000       0.999999980
  -16.805000000       0.999999981
  -16.795000000       0.999999982
  -16.785000000       0.999999983
  -16.775000000       0.999999984
  -16.765000000       0.999999985
  -16.755000000       0.999999986
  -16.745000000       0.999999987
  -16.735000000       0.999999988
  -16.725000000       0.999999989
  -16.715000000       0.999999990
  -16.705000000       0.999999990
  -16.695000000       0.999999991
  -16.685000000       0.999999992
  -16.675000000       0.999999992
  -16.665000000       0.999999993
  -16.655000000       0.999999994
  -16.645000000       0.999999994
  -16.635000000       0.999999995
  -16.625000000       0.999999995
  -16.615000000       0.999999996
  -16.605000000       0.999999996
  -16.595000000       0.999999997
  -16.585000000       0.999999997
  -16.575000000       0.999999998
  -16.565000000       0.999999998
  -16.555000000       0.999999998
  -16.545000000       0.999999998
  -16.535000000       0.999999999
  -16.525000000       0.999999999
  -16.515000000       0.999999999
  -16.505000000       0.999999999
  -16.495000000       0.999999999
  -16.485000000       1.000000000
  -16.475000000       1.000000000
  -16.465000000       1.000000000
  -16.455000000       1.000000000
  -16.445000000       1.000000000
  -16.435000000       1.000000000
  -16.425000000       1.000000000
  -16.415000000       1.000000000
  -16.405000000       1.000000000
  -16.395000000       1.000000000
  -16.385000000       1.000000000
  -16.375000000       1.000000000
  -16.365000000       1.000000000
  -16.355000000       1.000000000
  -16.345000000       0.999999999
  -16.335000000       0.999999999
  -16.325000000       0.999999999
  -16.315000000       0.999999999
  -16.305000000       0.999999999
  -16.295000000       0.999999999
  -16.285000000       0.999999998
  -16.275000000       0.999999998
  -16.265000000       0.999999998
  -16.255000000       0.999999998
  -16.245000000       0.999999998
  -16.235000000       0.999999997
  -16.225000000       0.999999997
  -16.215000000       0.999999997
  -16.205000000       0.999999996
  -16.195000000       0.999999996
  -16.185000000       0.999999996
  -16.175000000       0.999999996
  -16.165000000       0.999999995
  -16.155000000       0.999999995
  -16.145000000       0.999999995
  -16.135000000       0.999999994
  -16.125000000       0.999999994
  -16.115000000       0.999999994
  -16.105000000       0.999999993
  -16.095000000       0.999999993
  -16.085000000       0.999999993
  -16.075000000       0.999999992
  -16.065000000       0.999999992
  -16.055000000       0.999999992
  -16.045000000       0.999999991
  -16.035000000       0.999999991
  -16.025000000       0.999999991
  -16.015000000       0.999999990
  -16.005000000       0.999999990
  -15.995000000       0.999999990
  -15.985000000       0.999999989
  -15.975000000       0.999999989
  -15.965000000       0.999999989
  -15.955000000       0.999999988
  -15.945000000       0.999999988
  -15.935000000       0.999999987
  -15.925000000       0.999999987
  -15.915000000       0.999999987
  -15.905000000       0.999999986
  -15.895000000       0.999999986
  -15.885000000       0.999999986
  -15.875000000       0.999999985
  -15.865000000       0.999999985
  -15.855000000       0.999999985
  -15.845000000       0.999999985
  -15.835000000       0.999999984
  -15.825000000       0.999999984
  -15.815000000       0.999999984
  -15.805000000       0.999999983
  -15.795000000       0.999999983
  -15.785000000       0.999999983
  -15.775000000       0.999999982
  -15.765000000       0.999999982
  -15.755000000       0.999999982
  -15.745000000       0.999999982
  -15.735000000       0.999999981
  -15.725000000       0.999999981
  -15.715000000       0.999999981
  -15.705000000       0.999999981
  -15.695000000       0.999999980
  -15.685000000       0.999999980
  -15.675000000       0.999999980
  -15.665000000       0.999999980
  -15.655000000       0.999999979
  -15.645000000       0.999999979
  -15.635000000       0.999999979
  -15.625000000       0.999999979
  -15.615000000       0.999999979
  -15.605000000       0.999999979
  -15.595000000       0.999999978
  -15.585000000       0.999999978
  -15.575000000       0.999999978
  -15.565000000       0.999999978
  -15.555000000       0.999999978
  -15.545000000       0.999999978
  -15.535000000       0.999999977
  -15.525000000       0.999999977
  -15.515000000       0.999999977
  -15.505000000       0.999999977
  -15.495000000       0.999999977
  -15.485000000       0.999999977
  -15.475000000       0.999999977
  -15.465000000       0.999999977
  -15.455000000       0.999999977
  -15.445000000       0.999999977
  -15.435000000       0.999999977
  -15.425000000       0.999999976
  -15.415000000       0.999999976
  -15.405000000       0.999999976
  -15.395000000       0.999999976
  -15.385000000       0.999999976
  -15.375000000       0.999999976
  -15.365000000       0.999999976
  -15.355000000       0.999999976
  -15.345000000       0.999999976
  -15.335000000       0.999999976
  -15.325000000       0.999999976
  -15.315000000       0.999999976
  -15.305000000       0.999999976
  -15.295000000       0.999999976
  -15.285000000       0.999999976
  -15.275000000       0.999999976
  -15.265000000       0.999999960
  -15.255000000       0.999998780
  -15.245000000       0.999999974
  -15.235000000       0.999999976
  -15.225000000       0.999999977
  -15.215000000       0.999999977
  -15.205000000       0.999999977
  -15.195000000       0.999999977
  -15.185000000       0.999999977
  -15.175000000       0.999999977
  -15.165000000       0.999999977
  -15.155000000       0.999999977
  -15.145000000       0.999999978
  -15.135000000       0.999999978
  -15.125000000       0.999999978
  -15.115000000       0.999999978
  -15.105000000       0.999999978
  -15.095000000       0.999999978
  -15.085000000       0.999999978
  -15.075000000       0.999999979
  -15.065000000       0.999999979
  -15.055000000       0.999999979
  -15.045000000       0.999999979
  -15.035000000       0.999999979
  -15.025000000       0.999999979
  -15.015000000       0.999999980
  -15.005000000       0.999999980
  -14.995000000       0.999999980
  -14.985000000       0.999999980
  -14.975000000       0.999999980
  -14.965000000       0.999999980
  -14.955000000       0.999999981
  -14.945000000       0.999999981
  -14.935000000       0.999999981
  -14.925000000       0.999999981
  -14.915000000       0.999999982
  -14.905000000       0.999999982
  -14.895000000       0.999999982
  -14.885000000       0.999999982
  -14.875000000       0.999999982
  -14.865000000       0.999999983
  -14.855000000       0.999999983
  -14.845000000       0.999999983
  -14.835000000       0.999999983
  -14.825000000       0.999999984
  -14.815000000       0.999999984
  -14.805000000       0.999999984
  -14.795000000       0.999999984
  -14.785000000       0.999999985
  -14.775000000       0.999999985
  -14.765000000       0.999999985
  -14.755000000       0.999999985
  -14.745000000       0.999999985
  -14.735000000       0.999999986
  -14.725000000       0.999999986
  -14.715000000       0.999999986
  -14.705000000       0.999999986
  -14.695000000       0.999999987
  -14.685000000       0.999999987
  -14.675000000       0.999999987
  -14.665000000       0.999999987
  -14.655000000       0.999999988
  -14.645000000       0.999999988
  -14.635000000       0.999999988
  -14.625000000       0.999999988
  -14.615000000       0.999999989
  -14.605000000       0.999999989
  -14.595000000       0.999999989
  -14.585000000       0.999999989
  -14.575000000       0.999999990
  -14.565000000       0.999999990
  -14.555000000       0.999999990
  -14.545000000       0.999999990
  -14.535000000       0.999999991
  -14.525000000       0.999999991
  -14.515000000       0.999999991
  -14.505000000       0.999999991
  -14.495000000       0.999999992
  -14.485000000       0.999999992
  -14.475000000       0.999999992
  -14.465000000       0.999999992
  -14.455000000       0.999999993
  -14.445000000       0.999999993
  -14.435000000       0.999999993
  -14.425000000       0.999999993
  -14.415000000       0.999999994
  -14.405000000       0.999999994
  -14.395000000       0.999999994
  -14.385000000       0.999999994
  -14.375000000       0.999999994
  -14.365000000       0.999999995
  -14.355000000       0.999999995
  -14.345000000       0.999999995
  -14.335000000       0.999999995
  -14.325000000       0.999999995
  -14.315000000       0.999999996
  -14.305000000       0.999999996
  -14.295000000       0.999999996
  -14.285000000       0.999999996
  -14.275000000       0.999999996
  -14.265000000       0.999999997
  -14.255000000       0.999999997
  -14.245000000       0.999999997
  -14.235000000       0.999999997
  -14.225000000       0.999999997
  -14.215000000       0.999999997
  -14.205000000       0.999999998
  -14.195000000       0.999999998
  -14.185000000       0.999999998
  -14.175000000       0.999999998
  -14.165000000       0.999999998
  -14.155000000       0.999999998
  -14.145000000       0.999999998
  -14.135000000       0.999999998
  -14.125000000       0.999999999
  -14.115000000       0.999999999
  -14.105000000       0.999999999
  -14.095000000       0.999999999
  -14.085000000       0.999999999
  -14.075000000       0.999999999
  -14.065000000       0.999999999
  -14.055000000       0.999999999
  -14.045000000       0.999999999
  -14.035000000       0.999999999
  -14.025000000       1.000000000
  -14.015000000       1.000000000
  -14.005000000       1.000000000
  -13.995000000       1.000000000
  -13.985000000       1.000000000
  -13.975000000       1.000000000
  -13.965000000       1.000000000
  -13.955000000       1.000000000
  -13.945000000       1.000000000
  -13.935000000       1.000000000
  -13.925000000       1.000000000
  -13.915000000       1.000000000
  -13.905000000       1.000000000
  -13.895000000       1.000000000
  -13.885000000       1.000000000
  -13.875000000       1.000000000
  -13.865000000       1.000000000
  -13.855000000       1.000000000
  -13.845000000       1.000000000
  -13.835000000       1.000000000
  -13.825000000       1.000000000
  -13.815000000       1.000000000
  -13.805000000       1.000000000
  -13.795000000       1.000000000
  -13.785000000       1.000000000
  -13.775000000       1.000000000
  -13.765000000       0.999999999
  -13.755000000       0.999999999
  -13.745000000       0.999999999
  -13.735000000       0.999999999
  -13.725000000       0.999999999
  -13.715000000       0.999999999
  -13.705000000       0.999999999
  -13.695000000       0.999999999
  -13.685000000       0.999999999
  -13.675000000       0.999999999
  -13.665000000       0.999999998
  -13.655000000       0.999999998
  -13.645000000       0.999999998
  -13.635000000       0.999999998
  -13.625000000       0.999999998
  -13.615000000       0.999999998
  -13.605000000       0.999999997
  -13.595000000       0.999999997
  -13.585000000       0.999999997
  -13.575000000       0.999999997
  -13.565000000       0.999999997
  -13.555000000       0.999999997
  -13.545000000       0.999999996
  -13.535000000       0.999999996
  -13.525000000       0.999999996
  -13.515000000       0.999999996
  -13.505000000       0.999999995
  -13.495000000       0.999999995
  -13.485000000       0.999999995
  -13.475000000       0.999999995
  -13.465000000       0.999999994
  -13.455000000       0.999999994
  -13.445000000       0.999999994
  -13.435000000       0.999999994
  -13.425000000       0.999999993
  -13.415000000       0.999999993
  -13.405000000       0.999999993
  -13.395000000       0.999999992
  -13.385000000       0.999999992
  -13.375000000       0.999999992
  -13.365000000       0.999999991
  -13.355000000       0.999999991
  -13.345000000       0.999999991
  -13.335000000       0.999999991
  -13.325000000       0.999999990
  -13.315000000       0.999999990
  -13.305000000       0.999999989
  -13.295000000       0.999999989
  -13.285000000       0.999999989
  -13.275000000       0.999999988
  -13.265000000       0.999999988
  -13.255000000       0.999999988
  -13.245000000       0.999999987
  -13.235000000       0.999999987
  -13.225000000       0.999999986
  -13.215000000       0.999999986
  -13.205000000       0.999999986
  -13.195000000       0.999999985
  -13.185000000       0.999999985
  -13.175000000       0.999999984
  -13.165000000       0.999999984
  -13.155000000       0.999999984
  -13.145000000       0.999999983
  -13.135000000       0.999999983
  -13.125000000       0.999999982
  -13.115000000       0.999999982
  -13.105000000       0.999999981
  -13.095000000       0.999999981
  -13.085000000       0.999999980
  -13.075000000       0.999999980
  -13.065000000       0.999999980
  -13.055000000       0.999999979
  -13.045000000       0.999999979
  -13.035000000       0.999999978
  -13.025000000       0.999999978
  -13.015000000       0.999999977
  -13.005000000       0.999999977
  -12.995000000       0.999999976
  -12.985000000       0.999999976
  -12.975000000       0.999999975
  -12.965000000       0.999999975
  -12.955000000       0.999999974
  -12.945000000       0.999999974
  -12.935000000       0.999999973
  -12.925000000       0.999999973
  -12.915000000       0.999999972
  -12.905000000       0.999999972
  -12.895000000       0.999999971
  -12.885000000       0.999999971
  -12.875000000       0.999999970
  -12.865000000       0.999999970
  -12.855000000       0.999999969
  -12.845000000       0.999999969
  -12.835000000       0.999999968
  -12.825000000       0.999999968
  -12.815000000       0.999999967
  -12.805000000       0.999999966
  -12.795000000       0.999999966
  -12.785000000       0.999999965
  -12.775000000       0.999999965
  -12.765000000       0.999999964
  -12.755000000       0.999999964
  -12.745000000       0.999999963
  -12.735000000       0.999999963
  -12.725000000       0.999999962
  -12.715000000       0.999999962
  -12.705000000       0.999999961
  -12.695000000       0.999999961
  -12.685000000       0.999999960
  -12.675000000       0.999999960
  -12.665000000       0.999999959
  -12.655000000       0.999999958
  -12.645000000       0.999999958
  -12.635000000       0.999999957
  -12.625000000       0.999999957
  -12.615000000       0.999999956
  -12.605000000       0.999999956
  -12.595000000       0.999999955
  -12.585000000       0.999999955
  -12.575000000       0.999999954
  -12.565000000       0.999999954
  -12.555000000       0.999999953
  -12.545000000       0.999999953
  -12.535000000       0.999999952
  -12.525000000       0.999999952
  -12.515000000       0.999999951
  -12.505000000       0.999999951
  -12.495000000       0.999999951
  -12.485000000       0.999999950
  -12.475000000       0.999999950
  -12.465000000       0.999999949
  -12.455000000       0.999999949
  -12.445000000       0.999999948
  -12.435000000       0.999999948
  -12.425000000       0.999999947
  -12.415000000       0.999999947
  -12.405000000       0.999999947
  -12.395000000       0.999999946
  -12.385000000       0.999999946
  -12.375000000       0.999999946
  -12.365000000       0.999999945
  -12.355000000       0.999999945
  -12.345000000       0.999999944
  -12.335000000       0.999999944
  -12.325000000       0.999999944
  -12.315000000       0.999999943
  -12.305000000       0.999999943
  -12.295000000       0.999999943
  -12.285000000       0.999999943
  -12.275000000       0.999999942
  -12.265000000       0.999999942
  -12.255000000       0.999999942
  -12.245000000       0.999999942
  -12.235000000       0.999999941
  -12.225000000       0.999999941
  -12.215000000       0.999999941
  -12.205000000       0.999999941
  -12.195000000       0.999999941
  -12.185000000       0.999999941
  -12.175000000       0.999999941
  -12.165000000       0.999999941
  -12.155000000       0.999999941
  -12.145000000       0.999999940
  -12.135000000       0.999999940
  -12.125000000       0.999999940
  -12.115000000       0.999999940
  -12.105000000       0.999999941
  -12.095000000       0.999999941
  -12.085000000       0.999999941
  -12.075000000       0.999999941
  -12.065000000       0.999999941
  -12.055000000       0.999999941
  -12.045000000       0.999999941
  -12.035000000       0.999999942
  -12.025000000       0.999999942
  -12.015000000       0.999999942
  -12.005000000       0.999999942
  -11.995000000       0.999999943
  -11.985000000       0.999999943
  -11.975000000       0.999999944
  -11.965000000       0.999999944
  -11.955000000       0.999999944
  -11.945000000       0.999999945
  -11.935000000       0.999999945
  -11.925000000       0.999999946
  -11.915000000       0.999999947
  -11.905000000       0.999999947
  -11.895000000       0.999999948
  -11.885000000       0.999999949
  -11.875000000       0.999999949
  -11.865000000       0.999999950
  -11.855000000       0.999999951
  -11.845000000       0.999999952
  -11.835000000       0.999999953
  -11.825000000       0.999999954
  -11.815000000       0.999999955
  -11.805000000       0.999999956
  -11.795000000       0.999999957
  -11.785000000       0.999999958
  -11.775000000       0.999999959
  -11.765000000       0.999999961
  -11.755000000       0.999999962
  -11.745000000       0.999999963
  -11.735000000       0.999999964
  -11.725000000       0.999999966
  -11.715000000       0.999999967
  -11.705000000       0.999999969
  -11.695000000       0.999999970
  -11.685000000       0.999999972
  -11.675000000       0.999999973
  -11.665000000       0.999999975
  -11.655000000       0.999999977
  -11.645000000       0.999999978
  -11.635000000       0.999999980
  -11.625000000       0.999999982
  -11.615000000       0.999999983
  -11.605000000       0.999999985
  -11.595000000       0.999999987
  -11.585000000       0.999999988
  -11.575000000       0.999999990
  -11.565000000       0.999999992
  -11.555000000       0.999999993
  -11.545000000       0.999999995
  -11.535000000       0.999999996
  -11.525000000       0.999999997
  -11.515000000       0.999999998
  -11.505000000       0.999999999
  -11.495000000       1.000000000
  -11.485000000       1.000000000
  -11.475000000       1.000000000
  -11.465000000       1.000000000
  -11.455000000       0.999999999
  -11.445000000       0.999999997
  -11.435000000       0.999999995
  -11.425000000       0.999999992
  -11.415000000       0.999999988
  -11.405000000       0.999999983
  -11.395000000       0.999999977
  -11.385000000       0.999999969
  -11.375000000       0.999999959
  -11.365000000       0.999999947
  -11.355000000       0.999999932
  -11.345000000       0.999999914
  -11.335000000       0.999999892
  -11.325000000       0.999999865
  -11.315000000       0.999999833
  -11.305000000       0.999999793
  -11.295000000       0.999999744
  -11.285000000       0.999999685
  -11.275000000       0.999999612
  -11.265000000       0.999999522
  -11.255000000       0.999999411
  -11.245000000       0.999999271
  -11.235000000       0.999999094
  -11.225000000       0.999998869
  -11.215000000       0.999998578
  -11.205000000       0.999998197
  -11.195000000       0.999997690
  -11.185000000       0.999997002
  -11.175000000       0.999996043
  -11.165000000       0.999994668
  -11.155000000       0.999992618
  -11.145000000       0.999989410
  -11.135000000       0.999984048
  -11.125000000       0.999974233
  -11.115000000       0.999953641
  -11.105000000       0.999899443
  -11.095000000       0.999673439
  -11.085000000       0.994589975
  -11.075000000       0.000950250
  -11.065000000       0.000119690
  -11.055000000       0.000039387
  -11.045000000       0.000018091
  -11.035000000       0.000009877
  -11.025000000       0.000005999
  -11.015000000       0.000003918
  -11.005000000       0.000002698
  -10.995000000       0.000001934
  -10.985000000       0.000001431
  -10.975000000       0.000001086
  -10.965000000       0.000000842
  -10.955000000       0.000000665
  -10.945000000       0.000000533
  -10.935000000       0.000000433
  -10.925000000       0.000000356
  -10.915000000       0.000000295
  -10.905000000       0.000000247
  -10.895000000       0.000000209
  -10.885000000       0.000000178
  -10.875000000       0.000000152
  -10.865000000       0.000000131
  -10.855000000       0.000000113
  -10.845000000       0.000000099
  -10.835000000       0.000000086
  -10.825000000       0.000000076
  -10.815000000       0.000000067
  -10.805000000       0.000000059
  -10.795000000       0.000000053
  -10.785000000       0.000000047
  -10.775000000       0.000000042
  -10.765000000       0.000000038
  -10.755000000       0.000000034
  -10.745000000       0.000000030
  -10.735000000       0.000000028
  -10.725000000       0.000000025
  -10.715000000       0.000000023
  -10.705000000       0.000000021
  -10.695000000       0.000000019
  -10.685000000       0.000000017
  -10.675000000       0.000000016
  -10.665000000       0.000000014
  -10.655000000       0.000000013
  -10.645000000       0.000000012
  -10.635000000       0.000000011
  -10.625000000       0.000000010
  -10.615000000       0.000000009
  -10.605000000       0.000000009
  -10.595000000       0.000000008
  -10.585000000       0.000000008
  -10.575000000       0.000000007
  -10.565000000       0.000000006
  -10.555000000       0.000000006
  -10.545000000       0.000000006
  -10.535000000       0.000000005
  -10.525000000       0.000000005
  -10.515000000       0.000000005
  -10.505000000       0.000000004
  -10.495000000       0.000000004
  -10.485000000       0.000000004
  -10.475000000       0.000000003
  -10.465000000       0.000000003
  -10.455000000       0.000000003
  -10.445000000       0.000000003
  -10.435000000       0.000000003
  -10.425000000       0.000000003
  -10.415000000       0.000000002
  -10.405000000       0.000000002
  -10.395000000       0.000000002
  -10.385000000       0.000000002
  -10.375000000       0.000000002
  -10.365000000       0.000000002
  -10.355000000       0.000000002
  -10.345000000       0.000000002
  -10.335000000       0.000000002
  -10.325000000       0.000000001
  -10.315000000       0.000000001
  -10.305000000       0.000000001
  -10.295000000       0.000000001
  -10.285000000       0.000000001
  -10.275000000       0.000000001
  -10.265000000       0.000000001
  -10.255000000       0.000000001
  -10.245000000       0.000000001
  -10.235000000       0.000000001
  -10.225000000       0.000000001
  -10.215000000       0.000000001
  -10.205000000       0.000000001
  -10.195000000       0.000000001
  -10.185000000       0.000000001
  -10.175000000       0.000000001
  -10.165000000       0.000000001
  -10.155000000       0.000000001
  -10.145000000       0.000000001
  -10.135000000       0.000000001
  -10.125000000       0.000000001
  -10.115000000       0.000000001
  -10.105000000       0.000000000
  -10.095000000       0.000000000
  -10.085000000       0.000000000
  -10.075000000       0.000000000
  -10.065000000       0.000000000
  -10.055000000       0.000000000
  -10.045000000       0.000000000
  -10.035000000       0.000000000
  -10.025000000       0.000000000
  -10.015000000       0.000000000
  -10.005000000       0.000000000
   -9.995000000       0.000000000
   -9.985000000       0.000000000
   -9.975000000       0.000000000
   -9.965000000       0.000000000
   -9.955000000       0.000000000
   -9.945000000       0.000000000
   -9.935000000       0.000000000
   -9.925000000       0.000000000
   -9.915000000       0.000000000
   -9.905000000       0.000000000
   -9.895000000       0.000000000
   -9.885000000       0.000000000
   -9.875000000       0.000000000
   -9.865000000       0.000000000
   -9.855000000       0.000000000
   -9.845000000       0.000000000
   -9.835000000       0.000000000
   -9.825000000       0.000000000
   -9.815000000       0.000000000
   -9.805000000       0.000000000
   -9.795000000       0.000000000
   -9.785000000       0.000000000
   -9.775000000       0.000000000
   -9.765000000       0.000000000
   -9.755000000       0.000000000
   -9.745000000       0.000000000
   -9.735000000       0.000000000
   -9.725000000       0.000000000
   -9.715000000       0.000000000
   -9.705000000       0.000000000
   -9.695000000       0.000000000
   -9.685000000       0.000000000
   -9.675000000       0.000000000
   -9.665000000       0.000000000
   -9.655000000       0.000000000
   -9.645000000       0.000000000
   -9.635000000       0.000000000
   -9.625000000       0.000000000
   -9.615000000       0.000000000
   -9.605000000       0.000000000
   -9.595000000       0.000000000
   -9.585000000       0.000000000
   -9.575000000       0.000000000
   -9.565000000       0.000000000
   -9.555000000       0.000000000
   -9.545000000       0.000000000
   -9.535000000       0.000000000
   -9.525000000       0.000000000
   -9.515000000       0.000000000
   -9.505000000       0.000000000
   -9.495000000       0.000000000
   -9.485000000       0.000000000
   -9.475000000       0.000000000
   -9.465000000       0.000000000
   -9.455000000       0.000000000
   -9.445000000       0.000000000
   -9.435000000       0.000000000
   -9.425000000       0.000000000
   -9.415000000       0.000000000
   -9.405000000       0.000000000
   -9.395000000       0.000000000
   -9.385000000       0.000000000
   -9.375000000       0.000000000
   -9.365000000       0.000000000
   -9.355000000       0.000000000
   -9.345000000       0.000000000
   -9.335000000       0.000000000
   -9.325000000       0.000000000
   -9.315000000       0.000000000
   -9.305000000       0.000000000
   -9.295000000       0.000000000
   -9.285000000       0.000000000
   -9.275000000       0.000000000
   -9.265000000       0.000000000
   -9.255000000       0.000000000
   -9.245000000       0.000000000
   -9.235000000       0.000000000
   -9.225000000       0.000000000
   -9.215000000       0.000000000
   -9.205000000       0.000000000
   -9.195000000       0.000000000
   -9.185000000       0.000000000
   -9.175000000       0.000000000
   -9.165000000       0.000000000
   -9.155000000       0.000000000
   -9.145000000       0.000000000
   -9.135000000       0.000000000
   -9.125000000       0.000000000
   -9.115000000       0.000000000
   -9.105000000       0.000000000
   -9.095000000       0.000000000
   -9.085000000       0.000000000
   -9.075000000       0.000000000
   -9.065000000       0.000000000
   -9.055000000       0.000000000
   -9.045000000       0.000000000
   -9.035000000       0.000000000
   -9.025000000       0.000000000
   -9.015000000       0.000000000
   -9.005000000       0.000000000
   -8.995000000       0.000000000
   -8.985000000       0.000000000
   -8.975000000       0.000000000
   -8.965000000       0.000000000
   -8.955000000       0.000000000
   -8.945000000       0.000000000
   -8.935000000       0.000000000
   -8.925000000       0.000000000
   -8.915000000       0.000000000
   -8.905000000       0.000000000
   -8.895000000       0.000000000
   -8.885000000       0.000000000
   -8.875000000       0.000000000
   -8.865000000       0.000000000
   -8.855000000       0.000000000
   -8.845000000       0.000000000
   -8.835000000       0.000000000
   -8.825000000       0.000000000
   -8.815000000       0.000000000
   -8.805000000       0.000000000
   -8.795000000       0.000000000
   -8.785000000       0.000000000
   -8.775000000       0.000000000
   -8.765000000       0.000000000
   -8.755000000       0.000000000
   -8.745000000       0.000000000
   -8.735000000       0.000000000
   -8.725000000       0.000000000
   -8.715000000       0.000000000
   -8.705000000       0.000000000
   -8.695000000       0.000000000
   -8.685000000       0.000000000
   -8.675000000       0.000000000
   -8.665000000       0.000000000
   -8.655000000       0.000000000
   -8.645000000       0.000000000
   -8.635000000       0.000000000
   -8.625000000       0.000000000
   -8.615000000       0.000000001
   -8.605000000       0.000000001
   -8.595000000       0.000000001
   -8.585000000       0.000000001
   -8.575000000       0.000000001
   -8.565000000       0.000000001
   -8.555000000       0.000000001
   -8.545000000       0.000000001
   -8.535000000       0.000000001
   -8.525000000       0.000000001
   -8.515000000       0.000000001
   -8.505000000       0.000000001
   -8.495000000       0.000000001
   -8.485000000       0.000000001
   -8.475000000       0.000000001
   -8.465000000       0.000000001
   -8.455000000       0.000000001
   -8.445000000       0.000000001
   -8.435000000       0.000000001
   -8.425000000       0.000000001
   -8.415000000       0.000000001
   -8.405000000       0.000000001
   -8.395000000       0.000000001
   -8.385000000       0.000000001
   -8.375000000       0.000000001
   -8.365000000       0.000000001
   -8.355000000       0.000000001
   -8.345000000       0.000000001
   -8.335000000       0.000000002
   -8.325000000       0.000000002
   -8.315000000       0.000000002
   -8.305000000       0.000000002
   -8.295000000       0.000000002
   -8.285000000       0.000000002
   -8.275000000       0.000000002
   -8.265000000       0.000000002
   -8.255000000       0.000000002
   -8.245000000       0.000000002
   -8.235000000       0.000000002
   -8.225000000       0.000000002
   -8.215000000       0.000000003
   -8.205000000       0.000000003
   -8.195000000       0.000000003
   -8.185000000       0.000000003
   -8.175000000       0.000000003
   -8.165000000       0.000000003
   -8.155000000       0.000000003
   -8.145000000       0.000000004
   -8.135000000       0.000000004
   -8.125000000       0.000000004
   -8.115000000       0.000000004
   -8.105000000       0.000000005
   -8.095000000       0.000000005
   -8.085000000       0.000000005
   -8.075000000       0.000000005
   -8.065000000       0.000000006
   -8.055000000       0.000000006
   -8.045000000       0.000000006
   -8.035000000       0.000000007
   -8.025000000       0.000000007
   -8.015000000       0.000000007
   -8.005000000       0.000000008
   -7.995000000       0.000000008
   -7.985000000       0.000000009
   -7.975000000       0.000000010
   -7.965000000       0.000000010
   -7.955000000       0.000000011
   -7.945000000       0.000000012
   -7.935000000       0.000000012
   -7.925000000       0.000000013
   -7.915000000       0.000000014
   -7.905000000       0.000000015
   -7.895000000       0.000000016
   -7.885000000       0.000000017
   -7.875000000       0.000000019
   -7.865000000       0.000000020
   -7.855000000       0.000000021
   -7.845000000       0.000000023
   -7.835000000       0.000000025
   -7.825000000       0.000000027
   -7.815000000       0.000000029
   -7.805000000       0.000000031
   -7.795000000       0.000000034
   -7.785000000       0.000000037
   -7.775000000       0.000000040
   -7.765000000       0.000000044
   -7.755000000       0.000000048
   -7.745000000       0.000000052
   -7.735000000       0.000000058
   -7.725000000       0.000000063
   -7.715000000       0.000000069
   -7.705000000       0.000000077
   -7.695000000       0.000000085
   -7.685000000       0.000000094
   -7.675000000       0.000000104
   -7.665000000       0.000000116
   -7.655000000       0.000000130
   -7.645000000       0.000000146
   -7.635000000       0.000000164
   -7.625000000       0.000000185
   -7.615000000       0.000000210
   -7.605000000       0.000000239
   -7.595000000       0.000000273
   -7.585000000       0.000000314
   -7.575000000       0.000000362
   -7.565000000       0.000000421
   -7.555000000       0.000000493
   -7.545000000       0.000000580
   -7.535000000       0.000000689
   -7.525000000       0.000000826
   -7.515000000       0.000000999
   -7.505000000       0.000001223
   -7.495000000       0.000001517
   -7.485000000       0.000001909
   -7.475000000       0.000002445
   -7.465000000       0.000003197
   -7.455000000       0.000004287
   -7.445000000       0.000005929
   -7.435000000       0.000008528
   -7.425000000       0.000012914
   -7.415000000       0.000020988
   -7.405000000       0.000037825
   -7.395000000       0.000080541
   -7.385000000       0.000235805
   -7.375000000       0.001679596
   -7.365000000       1.985169803
   -7.355000000       1.999285327
   -7.345000000       1.999784681
   -7.335000000       1.999900920
   -7.325000000       1.999944682
   -7.315000000       1.999965494
   -7.305000000       1.999976875
   -7.295000000       1.999983707
   -7.285000000       1.999988090
   -7.275000000       1.999991048
   -7.265000000       1.999993122
   -7.255000000       1.999994622
   -7.245000000       1.999995735
   -7.235000000       1.999996579
   -7.225000000       1.999997229
   -7.215000000       1.999997738
   -7.205000000       1.999998141
   -7.195000000       1.999998465
   -7.185000000       1.999998726
   -7.175000000       1.999998939
   -7.165000000       1.999999115
   -7.155000000       1.999999259
   -7.145000000       1.999999380
   -7.135000000       1.999999480
   -7.125000000       1.999999564
   -7.115000000       1.999999635
   -7.105000000       1.999999695
   -7.095000000       1.999999745
   -7.085000000       1.999999788
   -7.075000000       1.999999824
   -7.065000000       1.999999855
   -7.055000000       1.999999881
   -7.045000000       1.999999902
   -7.035000000       1.999999921
   -7.025000000       1.999999937
   -7.015000000       1.999999950
   -7.005000000       1.999999961
   -6.995000000       1.999999970
   -6.985000000       1.999999977
   -6.975000000       1.999999983
   -6.965000000       1.999999988
   -6.955000000       1.999999992
   -6.945000000       1.999999995
   -6.935000000       1.999999997
   -6.925000000       1.999999999
   -6.915000000       2.000000000
   -6.905000000       2.000000000
   -6.895000000       2.000000000
   -6.885000000       1.999999999
   -6.875000000       1.999999999
   -6.865000000       1.999999998
   -6.855000000       1.999999996
   -6.845000000       1.999999995
   -6.835000000       1.999999993
   -6.825000000       1.999999991
   -6.815000000       1.999999989
   -6.805000000       1.999999987
   -6.795000000       1.999999985
   -6.785000000       1.999999983
   -6.775000000       1.999999981
   -6.765000000       1.999999979
   -6.755000000       1.999999976
   -6.745000000       1.999999974
   -6.735000000       1.999999972
   -6.725000000       1.999999969
   -6.715000000       1.999999967
   -6.705000000       1.999999965
   -6.695000000       1.999999962
   -6.685000000       1.999999960
   -6.675000000       1.999999958
   -6.665000000       1.999999956
   -6.655000000       1.999999954
   -6.645000000       1.999999951
   -6.635000000       1.999999949
   -6.625000000       1.999999947
   -6.615000000       1.999999945
   -6.605000000       1.999999943
   -6.595000000       1.999999942
   -6.585000000       1.999999940
   -6.575000000       1.999999938
   -6.565000000       1.999999936
   -6.555000000       1.999999934
   -6.545000000       1.999999933
   -6.535000000       1.999999931
   -6.525000000       1.999999930
   -6.515000000       1.999999928
   -6.505000000       1.999999927
   -6.495000000       1.999999925
   -6.485000000       1.999999924
   -6.475000000       1.999999922
   -6.465000000       1.999999921
   -6.455000000       1.999999920
   -6.445000000       1.999999919
   -6.435000000       1.999999918
   -6.425000000       1.999999917
   -6.415000000       1.999999916
   -6.405000000       1.999999915
   -6.395000000       1.999999914
   -6.385000000       1.999999913
   -6.375000000       1.999999912
   -6.365000000       1.999999911
   -6.355000000       1.999999910
   -6.345000000       1.999999910
   -6.335000000       1.999999909
   -6.325000000       1.999999908
   -6.315000000       1.999999908
   -6.305000000       1.999999907
   -6.295000000       1.999999907
   -6.285000000       1.999999906
   -6.275000000       1.999999906
   -6.265000000       1.999999905
   -6.255000000       1.999999905
   -6.245000000       1.999999905
   -6.235000000       1.999999904
   -6.225000000       1.999999904
   -6.215000000       1.999999904
   -6.205000000       1.999999904
   -6.195000000       1.999999903
   -6.185000000       1.999999903
   -6.175000000       1.999999903
   -6.165000000       1.999999903
   -6.155000000       1.999999903
   -6.145000000       1.999999903
   -6.135000000       1.999999903
   -6.125000000       1.999999903
   -6.115000000       1.999999903
   -6.105000000       1.999999903
   -6.095000000       1.999999903
   -6.085000000       1.999999904
   -6.075000000       1.999999904
   -6.065000000       1.999999904
   -6.055000000       1.999999904
   -6.045000000       1.999999904
   -6.035000000       1.999999905
   -6.025000000       1.999999905
   -6.015000000       1.999999905
   -6.005000000       1.999999905
   -5.995000000       1.999999906
   -5.985000000       1.999999906
   -5.975000000       1.999999907
   -5.965000000       1.999999907
   -5.955000000       1.999999907
   -5.945000000       1.999999908
   -5.935000000       1.999999908
   -5.925000000       1.999999909
   -5.915000000       1.999999909
   -5.905000000       1.999999910
   -5.895000000       1.999999910
   -5.885000000       1.999999911
   -5.875000000       1.999999911
   -5.865000000       1.999999912
   -5.855000000       1.999999912
   -5.845000000       1.999999913
   -5.835000000       1.999999914
   -5.825000000       1.999999914
   -5.815000000       1.999999915
   -5.805000000       1.999999916
   -5.795000000       1.999999916
   -5.785000000       1.999999917
   -5.775000000       1.999999918
   -5.765000000       1.999999918
   -5.755000000       1.999999919
   -5.745000000       1.999999920
   -5.735000000       1.999999920
   -5.725000000       1.999999921
   -5.715000000       1.999999922
   -5.705000000       1.999999922
   -5.695000000       1.999999923
   -5.685000000       1.999999924
   -5.675000000       1.999999925
   -5.665000000       1.999999925
   -5.655000000       1.999999926
   -5.645000000       1.999999927
   -5.635000000       1.999999928
   -5.625000000       1.999999929
   -5.615000000       1.999999929
   -5.605000000       1.999999930
   -5.595000000       1.999999931
   -5.585000000       1.999999932
   -5.575000000       1.999999933
   -5.565000000       1.999999933
   -5.555000000       1.999999934
   -5.545000000       1.999999935
   -5.535000000       1.999999936
   -5.525000000       1.999999937
   -5.515000000       1.999999937
   -5.505000000       1.999999938
   -5.495000000       1.999999939
   -5.485000000       1.999999940
   -5.475000000       1.999999941
   -5.465000000       1.999999941
   -5.455000000       1.999999942
   -5.445000000       1.999999943
   -5.435000000       1.999999944
   -5.425000000       1.999999945
   -5.415000000       1.999999946
   -5.405000000       1.999999946
   -5.395000000       1.999999947
   -5.385000000       1.999999948
   -5.375000000       1.999999949
   -5.365000000       1.999999950
   -5.355000000       1.999999950
   -5.345000000       1.999999951
   -5.335000000       1.999999952
   -5.325000000       1.999999953
   -5.315000000       1.999999954
   -5.305000000       1.999999954
   -5.295000000       1.999999955
   -5.285000000       1.999999956
   -5.275000000       1.999999957
   -5.265000000       1.999999958
   -5.255000000       1.999999958
   -5.245000000       1.999999959
   -5.235000000       1.999999960
   -5.225000000       1.999999961
   -5.215000000       1.999999961
   -5.205000000       1.999999962
   -5.195000000       1.999999963
   -5.185000000       1.999999964
   -5.175000000       1.999999964
   -5.165000000       1.999999965
   -5.155000000       1.999999966
   -5.145000000       1.999999967
   -5.135000000       1.999999967
   -5.125000000       1.999999968
   -5.115000000       1.999999969
   -5.105000000       1.999999969
   -5.095000000       1.999999970
   -5.085000000       1.999999971
   -5.075000000       1.999999971
   -5.065000000       1.999999972
   -5.055000000       1.999999973
   -5.045000000       1.999999973
   -5.035000000       1.999999974
   -5.025000000       1.999999975
   -5.015000000       1.999999975
   -5.005000000       1.999999976
   -4.995000000       1.999999976
   -4.985000000       1.999999977
   -4.975000000       1.999999978
   -4.965000000       1.999999978
   -4.955000000       1.999999979
   -4.945000000       1.999999979
   -4.935000000       1.999999980
   -4.925000000       1.999999981
   -4.915000000       1.999999981
   -4.905000000       1.999999982
   -4.895000000       1.999999982
   -4.885000000       1.999999983
   -4.875000000       1.999999983
   -4.865000000       1.999999984
   -4.855000000       1.999999984
   -4.845000000       1.999999985
   -4.835000000       1.999999985
   -4.825000000       1.999999986
   -4.815000000       1.999999986
   -4.805000000       1.999999987
   -4.795000000       1.999999987
   -4.785000000       1.999999988
   -4.775000000       1.999999988
   -4.765000000       1.999999988
   -4.755000000       1.999999989
   -4.745000000       1.999999989
   -4.735000000       1.999999990
   -4.725000000       1.999999990
   -4.715000000       1.999999990
   -4.705000000       1.999999991
   -4.695000000       1.999999991
   -4.685000000       1.999999992
   -4.675000000       1.999999992
   -4.665000000       1.999999992
   -4.655000000       1.999999993
   -4.645000000       1.999999993
   -4.635000000       1.999999993
   -4.625000000       1.999999994
   -4.615000000       1.999999994
   -4.605000000       1.999999994
   -4.595000000       1.999999994
   -4.585000000       1.999999995
   -4.575000000       1.999999995
   -4.565000000       1.999999995
   -4.555000000       1.999999996
   -4.545000000       1.999999996
   -4.535000000       1.999999996
   -4.525000000       1.999999996
   -4.515000000       1.999999996
   -4.505000000       1.999999997
   -4.495000000       1.999999997
   -4.485000000       1.999999997
   -4.475000000       1.999999997
   -4.465000000       1.999999997
   -4.455000000       1.999999998
   -4.445000000       1.999999998
   -4.435000000       1.999999998
   -4.425000000       1.999999998
   -4.415000000       1.999999998
   -4.405000000       1.999999998
   -4.395000000       1.999999999
   -4.385000000       1.999999999
   -4.375000000       1.999999999
   -4.365000000       1.999999999
   -4.355000000       1.999999999
   -4.345000000       1.999999999
   -4.335000000       1.999999999
   -4.325000000       1.999999999
   -4.315000000       1.999999999
   -4.305000000       2.000000000
   -4.295000000       2.000000000
   -4.285000000       2.000000000
   -4.275000000       2.000000000
   -4.265000000       2.000000000
   -4.255000000       2.000000000
   -4.245000000       2.000000000
   -4.235000000       2.000000000
   -4.225000000       2.000000000
   -4.215000000       2.000000000
   -4.205000000       2.000000000
   -4.195000000       2.000000000
   -4.185000000       2.000000000
   -4.175000000       2.000000000
   -4.165000000       2.000000000
   -4.155000000       2.000000000
   -4.145000000       2.000000000
   -4.135000000       2.000000000
   -4.125000000       2.000000000
   -4.115000000       2.000000000
   -4.105000000       2.000000000
   -4.095000000       2.000000000
   -4.085000000       2.000000000
   -4.075000000       2.000000000
   -4.065000000       2.000000000
   -4.055000000       2.000000000
   -4.045000000       2.000000000
   -4.035000000       2.000000000
   -4.025000000       2.000000000
   -4.015000000       1.999999999
   -4.005000000       1.999999999
   -3.995000000       1.999999999
   -3.985000000       1.999999999
   -3.975000000       1.999999999
   -3.965000000       1.999999999
   -3.955000000       1.999999999
   -3.945000000       1.999999999
   -3.935000000       1.999999999
   -3.925000000       1.999999999
   -3.915000000       1.999999999
   -3.905000000       1.999999999
   -3.895000000       1.999999998
   -3.885000000       1.999999998
   -3.875000000       1.999999998
   -3.865000000       1.999999998
   -3.855000000       1.999999998
   -3.845000000       1.999999998
   -3.835000000       1.999999998
   -3.825000000       1.999999998
   -3.815000000       1.999999998
   -3.805000000       1.999999997
   -3.795000000       1.999999997
   -3.785000000       1.999999997
   -3.775000000       1.999999997
   -3.765000000       1.999999997
   -3.755000000       1.999999997
   -3.745000000       1.999999997
   -3.735000000       1.999999997
   -3.725000000       1.999999996
   -3.715000000       1.999999996
   -3.705000000       1.999999996
   -3.695000000       1.999999996
   -3.685000000       1.999999996
   -3.675000000       1.999999996
   -3.665000000       1.999999996
   -3.655000000       1.999999996
   -3.645000000       1.999999995
   -3.635000000       1.999999995
   -3.625000000       1.999999995
   -3.615000000       1.999999995
   -3.605000000       1.999999995
   -3.595000000       1.999999995
   -3.585000000       1.999999995
   -3.575000000       1.999999994
   -3.565000000       1.999999994
   -3.555000000       1.999999994
   -3.545000000       1.999999994
   -3.535000000       1.999999994
   -3.525000000       1.999999994
   -3.515000000       1.999999994
   -3.505000000       1.999999993
   -3.495000000       1.999999993
   -3.485000000       1.999999993
   -3.475000000       1.999999993
   -3.465000000       1.999999993
   -3.455000000       1.999999993
   -3.445000000       1.999999993
   -3.435000000       1.999999993
   -3.425000000       1.999999992
   -3.415000000       1.999999992
   -3.405000000       1.999999992
   -3.395000000       1.999999992
   -3.385000000       1.999999992
   -3.375000000       1.999999992
   -3.365000000       1.999999992
   -3.355000000       1.999999992
   -3.345000000       1.999999991
   -3.335000000       1.999999991
   -3.325000000       1.999999991
   -3.315000000       1.999999991
   -3.305000000       1.999999991
   -3.295000000       1.999999991
   -3.285000000       1.999999991
   -3.275000000       1.999999991
   -3.265000000       1.999999990
   -3.255000000       1.999999990
   -3.245000000       1.999999990
   -3.235000000       1.999999990
   -3.225000000       1.999999990
   -3.215000000       1.999999990
   -3.205000000       1.999999990
   -3.195000000       1.999999990
   -3.185000000       1.999999990
   -3.175000000       1.999999989
   -3.165000000       1.999999989
   -3.155000000       1.999999989
   -3.145000000       1.999999989
   -3.135000000       1.999999989
   -3.125000000       1.999999989
   -3.115000000       1.999999989
   -3.105000000       1.999999989
   -3.095000000       1.999999989
   -3.085000000       1.999999989
   -3.075000000       1.999999988
   -3.065000000       1.999999988
   -3.055000000       1.999999988
   -3.045000000       1.999999988
   -3.035000000       1.999999988
   -3.025000000       1.999999988
   -3.015000000       1.999999988
   -3.005000000       1.999999988
   -2.995000000       1.999999988
   -2.985000000       1.999999988
   -2.975000000       1.999999988
   -2.965000000       1.999999988
   -2.955000000       1.999999987
   -2.945000000       1.999999987
   -2.935000000       1.999999987
   -2.925000000       1.999999987
   -2.915000000       1.999999987
   -2.905000000       1.999999987
   -2.895000000       1.999999987
   -2.885000000       1.999999987
   -2.875000000       1.999999987
   -2.865000000       1.999999987
   -2.855000000       1.999999987
   -2.845000000       1.999999987
   -2.835000000       1.999999987
   -2.825000000       1.999999987
   -2.815000000       1.999999987
   -2.805000000       1.999999987
   -2.795000000       1.999999987
   -2.785000000       1.999999986
   -2.775000000       1.999999986
   -2.765000000       1.999999986
   -2.755000000       1.999999986
   -2.745000000       1.999999986
   -2.735000000       1.999999986
   -2.725000000       1.999999986
   -2.715000000       1.999999986
   -2.705000000       1.999999986
   -2.695000000       1.999999986
   -2.685000000       1.999999986
   -2.675000000       1.999999986
   -2.665000000       1.999999986
   -2.655000000       1.999999986
   -2.645000000       1.999999986
   -2.635000000       1.999999986
   -2.625000000       1.999999986
   -2.615000000       1.999999986
   -2.605000000       1.999999986
   -2.595000000       1.999999986
   -2.585000000       1.999999986
   -2.575000000       1.999999986
   -2.565000000       1.999999986
   -2.555000000       1.999999986
   -2.545000000       1.999999986
   -2.535000000       1.999999986
   -2.525000000       1.999999986
   -2.515000000       1.999999986
   -2.505000000       1.999999986
   -2.495000000       1.999999986
   -2.485000000       1.999999986
   -2.475000000       1.999999986
   -2.465000000       1.999999986
   -2.455000000       1.999999986
   -2.445000000       1.999999986
   -2.435000000       1.999999986
   -2.425000000       1.999999986
   -2.415000000       1.999999986
   -2.405000000       1.999999986
   -2.395000000       1.999999986
   -2.385000000       1.999999986
   -2.375000000       1.999999986
   -2.365000000       1.999999986
   -2.355000000       1.999999986
   -2.345000000       1.999999986
   -2.335000000       1.999999986
   -2.325000000       1.999999986
   -2.315000000       1.999999986
   -2.305000000       1.999999986
   -2.295000000       1.999999986
   -2.285000000       1.999999986
   -2.275000000       1.999999986
   -2.265000000       1.999999986
   -2.255000000       1.999999986
   -2.245000000       1.999999986
   -2.235000000       1.999999986
   -2.225000000       1.999999986
   -2.215000000       1.999999986
   -2.205000000       1.999999986
   -2.195000000       1.999999986
   -2.185000000       1.999999986
   -2.175000000       1.999999986
   -2.165000000       1.999999985
   -2.155000000       1.999999984
   -2.145000000       1.999999965
   -2.135000000       1.999999669
   -2.125000000       1.999999981
   -2.115000000       1.999999985
   -2.105000000       1.999999986
   -2.095000000       1.999999986
   -2.085000000       1.999999987
   -2.075000000       1.999999987
   -2.065000000       1.999999987
   -2.055000000       1.999999987
   -2.045000000       1.999999987
   -2.035000000       1.999999987
   -2.025000000       1.999999987
   -2.015000000       1.999999987
   -2.005000000       1.999999987
   -1.995000000       1.999999987
   -1.985000000       1.999999987
   -1.975000000       1.999999987
   -1.965000000       1.999999988
   -1.955000000       1.999999988
   -1.945000000       1.999999988
   -1.935000000       1.999999988
   -1.925000000       1.999999988
   -1.915000000       1.999999988
   -1.905000000       1.999999988
   -1.895000000       1.999999988
   -1.885000000       1.999999988
   -1.875000000       1.999999988
   -1.865000000       1.999999988
   -1.855000000       1.999999988
   -1.845000000       1.999999988
   -1.835000000       1.999999988
   -1.825000000       1.999999988
   -1.815000000       1.999999988
   -1.805000000       1.999999988
   -1.795000000       1.999999989
   -1.785000000       1.999999989
   -1.775000000       1.999999989
   -1.765000000       1.999999989
   -1.755000000       1.999999989
   -1.745000000       1.999999989
   -1.735000000       1.999999989
   -1.725000000       1.999999989
   -1.715000000       1.999999989
   -1.705000000       1.999999989
   -1.695000000       1.999999989
   -1.685000000       1.999999989
   -1.675000000       1.999999989
   -1.665000000       1.999999989
   -1.655000000       1.999999989
   -1.645000000       1.999999990
   -1.635000000       1.999999990
   -1.625000000       1.999999990
   -1.615000000       1.999999990
   -1.605000000       1.999999990
   -1.595000000       1.999999990
   -1.585000000       1.999999990
   -1.575000000       1.999999990
   -1.565000000       1.999999990
   -1.555000000       1.999999990
   -1.545000000       1.999999990
   -1.535000000       1.999999990
   -1.525000000       1.999999990
   -1.515000000       1.999999990
   -1.505000000       1.999999991
   -1.495000000       1.999999991
   -1.485000000       1.999999991
   -1.475000000       1.999999991
   -1.465000000       1.999999991
   -1.455000000       1.999999991
   -1.445000000       1.999999991
   -1.435000000       1.999999991
   -1.425000000       1.999999991
   -1.415000000       1.999999991
   -1.405000000       1.999999991
   -1.395000000       1.999999991
   -1.385000000       1.999999991
   -1.375000000       1.999999991
   -1.365000000       1.999999992
   -1.355000000       1.999999992
   -1.345000000       1.999999992
   -1.335000000       1.999999992
   -1.325000000       1.999999992
   -1.315000000       1.999999992
   -1.305000000       1.999999992
   -1.295000000       1.999999992
   -1.285000000       1.999999992
   -1.275000000       1.999999992
   -1.265000000       1.999999992
   -1.255000000       1.999999992
   -1.245000000       1.999999992
   -1.235000000       1.999999992
   -1.225000000       1.999999992
   -1.215000000       1.999999993
   -1.205000000       1.999999993
   -1.195000000       1.999999993
   -1.185000000       1.999999993
   -1.175000000       1.999999993
   -1.165000000       1.999999993
   -1.155000000       1.999999993
   -1.145000000       1.999999993
   -1.135000000       1.999999993
   -1.125000000       1.999999993
   -1.115000000       1.999999993
   -1.105000000       1.999999993
   -1.095000000       1.999999993
   -1.085000000       1.999999993
   -1.075000000       1.999999994
   -1.065000000       1.999999994
   -1.055000000       1.999999994
   -1.045000000       1.999999994
   -1.035000000       1.999999994
   -1.025000000       1.999999994
   -1.015000000       1.999999994
   -1.005000000       1.999999994
   -0.995000000       1.999999994
   -0.985000000       1.999999994
   -0.975000000       1.999999994
   -0.965000000       1.999999994
   -0.955000000       1.999999994
   -0.945000000       1.999999994
   -0.935000000       1.999999994
   -0.925000000       1.999999995
   -0.915000000       1.999999995
   -0.905000000       1.999999995
   -0.895000000       1.999999995
   -0.885000000       1.999999995
   -0.875000000       1.999999995
   -0.865000000       1.999999995
   -0.855000000       1.999999995
   -0.845000000       1.999999995
   -0.835000000       1.999999995
   -0.825000000       1.999999995
   -0.815000000       1.999999995
   -0.805000000       1.999999995
   -0.795000000       1.999999995
   -0.785000000       1.999999995
   -0.775000000       1.999999995
   -0.765000000       1.999999996
   -0.755000000       1.999999996
   -0.745000000       1.999999996
   -0.735000000       1.999999996
   -0.725000000       1.999999996
   -0.715000000       1.999999996
   -0.705000000       1.999999996
   -0.695000000       1.999999996
   -0.685000000       1.999999996
   -0.675000000       1.999999996
   -0.665000000       1.999999996
   -0.655000000       1.999999996
   -0.645000000       1.999999996
   -0.635000000       1.999999996
   -0.625000000       1.999999996
   -0.615000000       1.999999996
   -0.605000000       1.999999996
   -0.595000000       1.999999996
   -0.585000000       1.999999997
   -0.575000000       1.999999997
   -0.565000000       1.999999997
   -0.555000000       1.999999997
   -0.545000000       1.999999997
   -0.535000000       1.999999997
   -0.525000000       1.999999997
   -0.515000000       1.999999997
   -0.505000000       1.999999997
   -0.495000000       1.999999997
   -0.485000000       1.999999997
   -0.475000000       1.999999997
   -0.465000000       1.999999997
   -0.455000000       1.999999997
   -0.445000000       1.999999997
   -0.435000000       1.999999997
   -0.425000000       1.999999997
   -0.415000000       1.999999997
   -0.405000000       1.999999997
   -0.395000000       1.999999997
   -0.385000000       1.999999997
   -0.375000000       1.999999998
   -0.365000000       1.999999998
   -0.355000000       1.999999998
   -0.345000000       1.999999998
   -0.335000000       1.999999998
   -0.325000000       1.999999998
   -0.315000000       1.999999998
   -0.305000000       1.999999998
   -0.295000000       1.999999998
   -0.285000000       1.999999998
   -0.275000000       1.999999998
   -0.265000000       1.999999998
   -0.255000000       1.999999998
   -0.245000000       1.999999998
   -0.235000000       1.999999998
   -0.225000000       1.999999998
   -0.215000000       1.999999998
   -0.205000000       1.999999998
   -0.195000000       1.999999998
   -0.185000000       1.999999998
   -0.175000000       1.999999998
   -0.165000000       1.999999998
   -0.155000000       1.999999998
   -0.145000000       1.999999998
   -0.135000000       1.999999998
   -0.125000000       1.999999999
   -0.115000000       1.999999999
   -0.105000000       1.999999999
   -0.095000000       1.999999999
   -0.085000000       1.999999999
   -0.075000000       1.999999999
   -0.065000000       1.999999999
   -0.055000000       1.999999999
   -0.045000000       1.999999999
   -0.035000000       1.999999999
   -0.025000000       1.999999999
   -0.015000000       1.999999999
   -0.005000000       1.999999999
    0.005000000       1.999999999
    0.015000000       1.999999999
    0.025000000       1.999999999
    0.035000000       1.999999999
    0.045000000       1.999999999
    0.055000000       1.999999999
    0.065000000       1.999999999
    0.075000000       1.999999999
    0.085000000       1.999999999
    0.095000000       1.999999999
    0.105000000       1.999999999
    0.115000000       1.999999999
    0.125000000       1.999999999
    0.135000000       1.999999999
    0.145000000       1.999999999
    0.155000000       1.999999999
    0.165000000       1.999999999
    0.175000000       1.999999999
    0.185000000       1.999999999
    0.195000000       1.999999999
    0.205000000       1.999999999
    0.215000000       1.999999999
    0.225000000       1.999999999
    0.235000000       2.000000000
    0.245000000       2.000000000
    0.255000000       2.000000000
    0.265000000       2.000000000
    0.275000000       2.000000000
    0.285000000       2.000000000
    0.295000000       2.000000000
    0.305000000       2.000000000
    0.315000000       2.000000000
    0.325000000       2.000000000
    0.335000000       2.000000000
    0.345000000       2.000000000
    0.355000000       2.000000000
    0.365000000       2.000000000
    0.375000000       2.000000000
    0.385000000       2.000000000
    0.395000000       2.000000000
    0.405000000       2.000000000
    0.415000000       2.000000000
    0.425000000       2.000000000
    0.435000000       2.000000000
    0.445000000       2.000000000
    0.455000000       2.000000000
    0.465000000       2.000000000
    0.475000000       2.000000000
    0.485000000       2.000000000
    0.495000000       2.000000000
    0.505000000       2.000000000
    0.515000000       2.000000000
    0.525000000       2.000000000
    0.535000000       2.000000000
    0.545000000       2.000000000
    0.555000000       2.000000000
    0.565000000       2.000000000
    0.575000000       2.000000000
    0.585000000       2.000000000
    0.595000000       2.000000000
    0.605000000       2.000000000
    0.615000000       2.000000000
    0.625000000       2.000000000
    0.635000000       2.000000000
    0.645000000       2.000000000
    0.655000000       2.000000000
    0.665000000       2.000000000
    0.675000000       2.000000000
    0.685000000       2.000000000
    0.695000000       2.000000000
    0.705000000       2.000000000
    0.715000000       2.000000000
    0.725000000       2.000000000
    0.735000000       2.000000000
    0.745000000       2.000000000
    0.755000000       2.000000000
    0.765000000       2.000000000
    0.775000000       2.000000000
    0.785000000       2.000000000
    0.795000000       2.000000000
    0.805000000       2.000000000
    0.815000000       2.000000000
    0.825000000       2.000000000
    0.835000000       2.000000000
    0.845000000       2.000000000
    0.855000000       2.000000000
    0.865000000       2.000000000
    0.875000000       2.000000000
    0.885000000       2.000000000
    0.895000000       2.000000000
    0.905000000       2.000000000
    0.915000000       2.000000000
    0.925000000       2.000000000
    0.935000000       2.000000000
    0.945000000       2.000000000
    0.955000000       2.000000000
    0.965000000       2.000000000
    0.975000000       2.000000000
    0.985000000       2.000000000
    0.995000000       2.000000000
    1.005000000       2.000000000
    1.015000000       2.000000000
    1.025000000       2.000000000
    1.035000000       2.000000000
    1.045000000       2.000000000
    1.055000000       2.000000000
    1.065000000       2.000000000
    1.075000000       2.000000000
    1.085000000       2.000000000
    1.095000000       2.000000000
    1.105000000       2.000000000
    1.115000000       2.000000000
    1.125000000       2.000000000
    1.135000000       2.000000000
    1.145000000       2.000000000
    1.155000000       2.000000000
    1.165000000       2.000000000
    1.175000000       2.000000000
    1.185000000       2.000000000
    1.195000000       2.000000000
    1.205000000       2.000000000
    1.215000000       2.000000000
    1.225000000       2.000000000
    1.235000000       2.000000000
    1.245000000       2.000000000
    1.255000000       2.000000000
    1.265000000       2.000000000
    1.275000000       2.000000000
    1.285000000       2.000000000
    1.295000000       2.000000000
    1.305000000       2.000000000
    1.315000000       1.999999999
    1.325000000       1.999999999
    1.335000000       1.999999999
    1.345000000       1.999999999
    1.355000000       1.999999999
    1.365000000       1.999999999
    1.375000000       1.999999999
    1.385000000       1.999999999
    1.395000000       1.999999999
    1.405000000       1.999999999
    1.415000000       1.999999999
    1.425000000       1.999999999
    1.435000000       1.999999999
    1.445000000       1.999999999
    1.455000000       1.999999999
    1.465000000       1.999999999
    1.475000000       1.999999999
    1.485000000       1.999999999
    1.495000000       1.999999999
    1.505000000       1.999999999
    1.515000000       1.999999999
    1.525000000       1.999999999
    1.535000000       1.999999999
    1.545000000       1.999999999
    1.555000000       1.999999999
    1.565000000       1.999999999
    1.575000000       1.999999999
    1.585000000       1.999999999
    1.595000000       1.999999999
    1.605000000       1.999999999
    1.615000000       1.999999999
    1.625000000       1.999999999
    1.635000000       1.999999999
    1.645000000       1.999999999
    1.655000000       1.999999999
    1.665000000       1.999999999
    1.675000000       1.999999999
    1.685000000       1.999999999
    1.695000000       1.999999999
    1.705000000       1.999999999
    1.715000000       1.999999999
    1.725000000       1.999999999
    1.735000000       1.999999999
    1.745000000       1.999999999
    1.755000000       1.999999998
    1.765000000       1.999999998
    1.775000000       1.999999998
    1.785000000       1.999999998
    1.795000000       1.999999998
    1.805000000       1.999999998
    1.815000000       1.999999998
    1.825000000       1.999999998
    1.835000000       1.999999998
    1.845000000       1.999999998
    1.855000000       1.999999998
    1.865000000       1.999999998
    1.875000000       1.999999998
    1.885000000       1.999999998
    1.895000000       1.999999998
    1.905000000       1.999999998
    1.915000000       1.999999998
    1.925000000       1.999999998
    1.935000000       1.999999998
    1.945000000       1.999999998
    1.955000000       1.999999998
    1.965000000       1.999999998
    1.975000000       1.999999998
    1.985000000       1.999999998
    1.995000000       1.999999998
    2.005000000       1.999999998
    2.015000000       1.999999998
    2.025000000       1.999999998
    2.035000000       1.999999998
    2.045000000       1.999999998
    2.055000000       1.999999998
    2.065000000       1.999999998
    2.075000000       1.999999998
    2.085000000       1.999999997
    2.095000000       1.999999997
    2.105000000       1.999999997
    2.115000000       1.999999997
    2.125000000       1.999999997
    2.135000000       1.999999997
    2.145000000       1.999999997
    2.155000000       1.999999997
    2.165000000       1.999999997
    2.175000000       1.999999997
    2.185000000       1.999999997
    2.195000000       1.999999997
    2.205000000       1.999999997
    2.215000000       1.999999997
    2.225000000       1.999999997
    2.235000000       1.999999997
    2.245000000       1.999999997
    2.255000000       1.999999997
    2.265000000       1.999999997
    2.275000000       1.999999997
    2.285000000       1.999999997
    2.295000000       1.999999997
    2.305000000       1.999999997
    2.315000000       1.999999997
    2.325000000       1.999999997
    2.335000000       1.999999997
    2.345000000       1.999999997
    2.355000000       1.999999997
    2.365000000       1.999999996
    2.375000000       1.999999996
    2.385000000       1.999999996
    2.395000000       1.999999996
    2.405000000       1.999999996
    2.415000000       1.999999996
    2.425000000       1.999999996
    2.435000000       1.999999996
    2.445000000       1.999999996
    2.455000000       1.999999996
    2.465000000       1.999999996
    2.475000000       1.999999996
    2.485000000       1.999999996
    2.495000000       1.999999996
    2.505000000       1.999999996
    2.515000000       1.999999996
    2.525000000       1.999999996
    2.535000000       1.999999996
    2.545000000       1.999999996
    2.555000000       1.999999996
    2.565000000       1.999999996
    2.575000000       1.999999996
    2.585000000       1.999999996
    2.595000000       1.999999996
    2.605000000       1.999999996
    2.615000000       1.999999996
    2.625000000       1.999999996
    2.635000000       1.999999995
    2.645000000       1.999999995
    2.655000000       1.999999995
    2.665000000       1.999999995
    2.675000000       1.999999995
    2.685000000       1.999999995
    2.695000000       1.999999995
    2.705000000       1.999999995
    2.715000000       1.999999995
    2.725000000       1.999999995
    2.735000000       1.999999995
    2.745000000       1.999999995
    2.755000000       1.999999995
    2.765000000       1.999999995
    2.775000000       1.999999995
    2.785000000       1.999999995
    2.795000000       1.999999995
    2.805000000       1.999999995
    2.815000000       1.999999995
    2.825000000       1.999999995
    2.835000000       1.999999995
    2.845000000       1.999999995
    2.855000000       1.999999995
    2.865000000       1.999999995
    2.875000000       1.999999994
    2.885000000       1.999999994
    2.895000000       1.999999994
    2.905000000       1.999999994
    2.915000000       1.999999994
    2.925000000       1.999999994
    2.935000000       1.999999994
    2.945000000       1.999999994
    2.955000000       1.999999994
    2.965000000       1.999999994
    2.975000000       1.999999994
    2.985000000       1.999999994
    2.995000000       1.999999994
    3.005000000       1.999999994
    3.015000000       1.999999994
    3.025000000       1.999999994
    3.035000000       1.999999994
    3.045000000       1.999999994
    3.055000000       1.999999994
    3.065000000       1.999999994
    3.075000000       1.999999994
    3.085000000       1.999999994
    3.095000000       1.999999994
    3.105000000       1.999999994
    3.115000000       1.999999994
    3.125000000       1.999999993
    3.135000000       1.999999993
    3.145000000       1.999999993
    3.155000000       1.999999993
    3.165000000       1.999999993
    3.175000000       1.999999993
    3.185000000       1.999999993
    3.195000000       1.999999993
    3.205000000       1.999999993
    3.215000000       1.999999993
    3.225000000       1.999999993
    3.235000000       1.999999993
    3.245000000       1.999999993
    3.255000000       1.999999993
    3.265000000       1.999999993
    3.275000000       1.999999993
    3.285000000       1.999999993
    3.295000000       1.999999993
    3.305000000       1.999999993
    3.315000000       1.999999993
    3.325000000       1.999999993
    3.335000000       1.999999993
    3.345000000       1.999999993
    3.355000000       1.999999993
    3.365000000       1.999999992
    3.375000000       1.999999992
    3.385000000       1.999999992
    3.395000000       1.999999992
    3.405000000       1.999999992
    3.415000000       1.999999992
    3.425000000       1.999999992
    3.435000000       1.999999992
    3.445000000       1.999999992
    3.455000000       1.999999992
    3.465000000       1.999999992
    3.475000000       1.999999992
    3.485000000       1.999999992
    3.495000000       1.999999992
    3.505000000       1.999999992
    3.515000000       1.999999992
    3.525000000       1.999999992
    3.535000000       1.999999992
    3.545000000       1.999999992
    3.555000000       1.999999992
    3.565000000       1.999999992
    3.575000000       1.999999992
    3.585000000       1.999999992
    3.595000000       1.999999992
    3.605000000       1.999999992
    3.615000000       1.999999991
    3.625000000       1.999999991
    3.635000000       1.999999991
    3.645000000       1.999999991
    3.655000000       1.999999991
    3.665000000       1.999999991
    3.675000000       1.999999991
    3.685000000       1.999999991
    3.695000000       1.999999991
    3.705000000       1.999999991
    3.715000000       1.999999991
    3.725000000       1.999999991
    3.735000000       1.999999991
    3.745000000       1.999999991
    3.755000000       1.999999991
    3.765000000       1.999999991
    3.775000000       1.999999991
    3.785000000       1.999999991
    3.795000000       1.999999991
    3.805000000       1.999999991
    3.815000000       1.999999991
    3.825000000       1.999999991
    3.835000000       1.999999991
    3.845000000       1.999999991
    3.855000000       1.999999991
    3.865000000       1.999999991
    3.875000000       1.999999990
    3.885000000       1.999999990
    3.895000000       1.999999990
    3.905000000       1.999999990
    3.915000000       1.999999990
    3.925000000       1.999999990
    3.935000000       1.999999990
    3.945000000       1.999999990
    3.955000000       1.999999990
    3.965000000       1.999999990
    3.975000000       1.999999990
    3.985000000       1.999999990
    3.995000000       1.999999990
    4.005000000       1.999999990
    4.015000000       1.999999990
    4.025000000       1.999999990
    4.035000000       1.999999990
    4.045000000       1.999999990
    4.055000000       1.999999990
    4.065000000       1.999999990
    4.075000000       1.999999990
    4.085000000       1.999999990
    4.095000000       1.999999990
    4.105000000       1.999999990
    4.115000000       1.999999990
    4.125000000       1.999999990
    4.135000000       1.999999990
    4.145000000       1.999999990
    4.155000000       1.999999989
    4.165000000       1.999999989
    4.175000000       1.999999989
    4.185000000       1.999999989
    4.195000000       1.999999989
    4.205000000       1.999999989
    4.215000000       1.999999989
    4.225000000       1.999999989
    4.235000000       1.999999989
    4.245000000       1.999999989
    4.255000000       1.999999989
    4.265000000       1.999999989
    4.275000000       1.999999989
    4.285000000       1.999999989
    4.295000000       1.999999989
    4.305000000       1.999999989
    4.315000000       1.999999989
    4.325000000       1.999999989
    4.335000000       1.999999989
    4.345000000       1.999999989
    4.355000000       1.999999989
    4.365000000       1.999999989
    4.375000000       1.999999989
    4.385000000       1.999999989
    4.395000000       1.999999989
    4.405000000       1.999999989
    4.415000000       1.999999989
    4.425000000       1.999999989
    4.435000000       1.999999989
    4.445000000       1.999999989
    4.455000000       1.999999989
    4.465000000       1.999999989
    4.475000000       1.999999989
    4.485000000       1.999999988
    4.495000000       1.999999988
    4.505000000       1.999999988
    4.515000000       1.999999988
    4.525000000       1.999999988
    4.535000000       1.999999988
    4.545000000       1.999999988
    4.555000000       1.999999988
    4.565000000       1.999999988
    4.575000000       1.999999988
    4.585000000       1.999999988
    4.595000000       1.999999988
    4.605000000       1.999999988
    4.615000000       1.999999988
    4.625000000       1.999999988
    4.635000000       1.999999988
    4.645000000       1.999999988
    4.655000000       1.999999988
    4.665000000       1.999999988
    4.675000000       1.999999988
    4.685000000       1.999999988
    4.695000000       1.999999988
    4.705000000       1.999999988
    4.715000000       1.999999988
    4.725000000       1.999999988
    4.735000000       1.999999988
    4.745000000       1.999999988
    4.755000000       1.999999988
    4.765000000       1.999999988
    4.775000000       1.999999988
    4.785000000       1.999999988
    4.795000000       1.999999988
    4.805000000       1.999999988
    4.815000000       1.999999988
    4.825000000       1.999999988
    4.835000000       1.999999988
    4.845000000       1.999999988
    4.855000000       1.999999988
    4.865000000       1.999999988
    4.875000000       1.999999988
    4.885000000       1.999999988
    4.895000000       1.999999988
    4.905000000       1.999999988
    4.915000000       1.999999988
    4.925000000       1.999999988
    4.935000000       1.999999987
    4.945000000       1.999999987
    4.955000000       1.999999987
    4.965000000       1.999999987
    4.975000000       1.999999987
    4.985000000       1.999999987
    4.995000000       1.999999987
    5.005000000       1.999999987
    5.015000000       1.999999987
    5.025000000       1.999999987
    5.035000000       1.999999987
    5.045000000       1.999999987
    5.055000000       1.999999987
    5.065000000       1.999999987
    5.075000000       1.999999987
    5.085000000       1.999999987
    5.095000000       1.999999987
    5.105000000       1.999999987
    5.115000000       1.999999987
    5.125000000       1.999999987
    5.135000000       1.999999987
    5.145000000       1.999999987
    5.155000000       1.999999987
    5.165000000       1.999999987
    5.175000000       1.999999987
    5.185000000       1.999999987
    5.195000000       1.999999987
    5.205000000       1.999999987
    5.215000000       1.999999987
    5.225000000       1.999999987
    5.235000000       1.999999987
    5.245000000       1.999999987
    5.255000000       1.999999987
    5.265000000       1.999999987
    5.275000000       1.999999987
    5.285000000       1.999999987
    5.295000000       1.999999987
    5.305000000       1.999999987
    5.315000000       1.999999987
    5.325000000       1.999999987
    5.335000000       1.999999987
    5.345000000       1.999999987
    5.355000000       1.999999987
    5.365000000       1.999999987
    5.375000000       1.999999987
    5.385000000       1.999999987
    5.395000000       1.999999987
[...]
   26.015000000       0.000000000
   26.025000000       0.000000000
   26.035000000       0.000000000
   26.045000000       0.000000000
   26.055000000       0.000000000
   26.065000000       0.000000000
   26.075000000       0.000000000
   26.085000000       0.000000000
   26.095000000       0.000000000
   26.105000000       0.000000000
   26.115000000       0.000000000
   26.125000000       0.000000000
   26.135000000       0.000000000
   26.145000000       0.000000000
   26.155000000       0.000000000
   26.165000000       0.000000000
   26.175000000       0.000000000
   26.185000000       0.000000000
   26.195000000       0.000000000
   26.205000000       0.000000000
   26.215000000       0.000000000
   26.225000000       0.000000000
   26.235000000       0.000000000
   26.245000000       0.000000000
   26.255000000       0.000000000
   26.265000000       0.000000000
   26.275000000       0.000000000
   26.285000000       0.000000000
   26.295000000       0.000000000
   26.305000000       0.000000000
   26.315000000       0.000000000
   26.325000000       0.000000000
   26.335000000       0.000000000
   26.345000000       0.000000000
   26.355000000       0.000000000
   26.365000000       0.000000000
   26.375000000       0.000000000
   26.385000000       0.000000000
   26.395000000       0.000000000
   26.405000000       0.000000000
   26.415000000       0.000000000
   26.425000000       0.000000000
   26.435000000       0.000000000
   26.445000000       0.000000000
   26.455000000       0.000000000
   26.465000000       0.000000000
   26.475000000       0.000000000
   26.485000000       0.000000000
   26.495000000       0.000000000
   26.505000000       0.000000000
   26.515000000       0.000000000
   26.525000000       0.000000000
   26.535000000       0.000000000
   26.545000000       0.000000000
   26.555000000       0.000000000
   26.565000000       0.000000000
   26.575000000       0.000000000
   26.585000000       0.000000000
   26.595000000       0.000000000
   26.605000000       0.000000000
   26.615000000       0.000000000
   26.625000000       0.000000000
   26.635000000       0.000000000
   26.645000000       0.000000000
   26.655000000       0.000000000
   26.665000000       0.000000000
   26.675000000       0.000000000
   26.685000000       0.000000000
   26.695000000       0.000000000
   26.705000000       0.000000000
   26.715000000       0.000000000
   26.725000000       0.000000000
   26.735000000       0.000000000
   26.745000000       0.000000000
   26.755000000       0.000000000
   26.765000000       0.000000000
   26.775000000       0.000000000
   26.785000000       0.000000000
   26.795000000       0.000000000
   26.805000000       0.000000000
   26.815000000       0.000000000
   26.825000000       0.000000000
   26.835000000       0.000000000
   26.845000000       0.000000000
   26.855000000       0.000000000
   26.865000000       0.000000000
   26.875000000       0.000000000
   26.885000000       0.000000000
   26.895000000       0.000000000
   26.905000000       0.000000000
   26.915000000       0.000000000
   26.925000000       0.000000000
   26.935000000       0.000000000
   26.945000000       0.000000000
   26.955000000       0.000000000
   26.965000000       0.000000000
   26.975000000       0.000000000
   26.985000000       0.000000000
   26.995000000       0.000000000
   27.005000000       0.000000000
   27.015000000       0.000000000
   27.025000000       0.000000000
   27.035000000       0.000000000
   27.045000000       0.000000000
   27.055000000       0.000000000
   27.065000000       0.000000000
   27.075000000       0.000000000
   27.085000000       0.000000000
   27.095000000       0.000000000
   27.105000000       0.000000000
   27.115000000       0.000000000
   27.125000000       0.000000000
   27.135000000       0.000000000
   27.145000000       0.000000000
   27.155000000       0.000000000
   27.165000000       0.000000000
   27.175000000       0.000000000
   27.185000000       0.000000000
   27.195000000       0.000000000
   27.205000000       0.000000000
   27.215000000       0.000000000
   27.225000000       0.000000000
   27.235000000       0.000000000
   27.245000000       0.000000000
   27.255000000       0.000000000
   27.265000000       0.000000000
   27.275000000       0.000000000
   27.285000000       0.000000000
   27.295000000       0.000000000
   27.305000000       0.000000000
   27.315000000       0.000000000
   27.325000000       0.000000000
   27.335000000       0.000000000
   27.345000000       0.000000000
   27.355000000       0.000000000
   27.365000000       0.000000000
   27.375000000       0.000000000
   27.385000000       0.000000000
   27.395000000       0.000000000
   27.405000000       0.000000000
   27.415000000       0.000000000
   27.425000000       0.000000000
   27.435000000       0.000000000
   27.445000000       0.000000000
   27.455000000       0.000000000
   27.465000000       0.000000000
   27.475000000       0.000000000
   27.485000000       0.000000000
   27.495000000       0.000000000
   27.505000000       0.000000000
   27.515000000       0.000000000
   27.525000000       0.000000000
   27.535000000       0.000000000
   27.545000000       0.000000000
   27.555000000       0.000000000
   27.565000000       0.000000000
   27.575000000       0.000000000
   27.585000000       0.000000000
   27.595000000       0.000000000
   27.605000000       0.000000000
   27.615000000       0.000000000
   27.625000000       0.000000000
   27.635000000       0.000000000
   27.645000000       0.000000000
   27.655000000       0.000000000
   27.665000000       0.000000000
   27.675000000       0.000000000
   27.685000000       0.000000000
   27.695000000       0.000000000
   27.705000000       0.000000000
   27.715000000       0.000000000
   27.725000000       0.000000000
   27.735000000       0.000000000
   27.745000000       0.000000000
   27.755000000       0.000000000
   27.765000000       0.000000000
   27.775000000       0.000000000
   27.785000000       0.000000000
   27.795000000       0.000000000
   27.805000000       0.000000000
   27.815000000       0.000000000
   27.825000000       0.000000000
   27.835000000       0.000000000
   27.845000000       0.000000000
   27.855000000       0.000000000
   27.865000000       0.000000000
   27.875000000       0.000000000
   27.885000000       0.000000000
   27.895000000       0.000000000
   27.905000000       0.000000000
   27.915000000       0.000000000
   27.925000000       0.000000000
   27.935000000       0.000000000
   27.945000000       0.000000000
   27.955000000       0.000000000
   27.965000000       0.000000000
   27.975000000       0.000000000
   27.985000000       0.000000000
   27.995000000       0.000000000
   28.005000000       0.000000000
   28.015000000       0.000000000
   28.025000000       0.000000000
   28.035000000       0.000000000
   28.045000000       0.000000000
   28.055000000       0.000000000
   28.065000000       0.000000000
   28.075000000       0.000000000
   28.085000000       0.000000000
   28.095000000       0.000000000
   28.105000000       0.000000000
   28.115000000       0.000000000
   28.125000000       0.000000000
   28.135000000       0.000000000
   28.145000000       0.000000000
   28.155000000       0.000000000
   28.165000000       0.000000000
   28.175000000       0.000000000
   28.185000000       0.000000000
   28.195000000       0.000000000
   28.205000000       0.000000000
   28.215000000       0.000000000
   28.225000000       0.000000000
   28.235000000       0.000000000
   28.245000000       0.000000000
   28.255000000       0.000000000
   28.265000000       0.000000000
   28.275000000       0.000000000
   28.285000000       0.000000000
   28.295000000       0.000000000
   28.305000000       0.000000000
   28.315000000       0.000000000
   28.325000000       0.000000000
   28.335000000       0.000000000
   28.345000000       0.000000000
   28.355000000       0.000000000
   28.365000000       0.000000000
   28.375000000       0.000000000
   28.385000000       0.000000000
   28.395000000       0.000000000
   28.405000000       0.000000000
   28.415000000       0.000000000
   28.425000000       0.000000000
   28.435000000       0.000000000
   28.445000000       0.000000000
   28.455000000       0.000000000
   28.465000000       0.000000000
   28.475000000       0.000000000
   28.485000000       0.000000000
   28.495000000       0.000000000
   28.505000000       0.000000000
   28.515000000       0.000000000
   28.525000000       0.000000000
   28.535000000       0.000000000
   28.545000000       0.000000000
   28.555000000       0.000000000
   28.565000000       0.000000000
   28.575000000       0.000000000
   28.585000000       0.000000000
   28.595000000       0.000000000
   28.605000000       0.000000000
   28.615000000       0.000000000
   28.625000000       0.000000000
   28.635000000       0.000000000
   28.645000000       0.000000000
   28.655000000       0.000000000
   28.665000000       0.000000000
   28.675000000       0.000000000
   28.685000000       0.000000000
   28.695000000       0.000000000
   28.705000000       0.000000000
   28.715000000       0.000000000
   28.725000000       0.000000000
   28.735000000       0.000000000
   28.745000000       0.000000000
   28.755000000       0.000000000
   28.765000000       0.000000000
   28.775000000       0.000000000
   28.785000000       0.000000000
   28.795000000       0.000000000
   28.805000000       0.000000000
   28.815000000       0.000000000
   28.825000000       0.000000000
   28.835000000       0.000000000
   28.845000000       0.000000000
   28.855000000       0.000000000
   28.865000000       0.000000000
   28.875000000       0.000000000
   28.885000000       0.000000000
   28.895000000       0.000000000
   28.905000000       0.000000000
   28.915000000       0.000000000
   28.925000000       0.000000000
   28.935000000       0.000000000
   28.945000000       0.000000000
   28.955000000       0.000000000
   28.965000000       0.000000000
   28.975000000       0.000000000
   28.985000000       0.000000000
   28.995000000       0.000000000
   29.005000000       0.000000000
   29.015000000       0.000000000
   29.025000000       0.000000000
   29.035000000       0.000000000
   29.045000000       0.000000000
   29.055000000       0.000000000
   29.065000000       0.000000000
   29.075000000       0.000000000
   29.085000000       0.000000000
   29.095000000       0.000000000
   29.105000000       0.000000000
   29.115000000       0.000000000
   29.125000000       0.000000000
   29.135000000       0.000000000
   29.145000000       0.000000000
   29.155000000       0.000000000
   29.165000000       0.000000000
   29.175000000       0.000000000
   29.185000000       0.000000000
   29.195000000       0.000000000
   29.205000000       0.000000000
   29.215000000       0.000000000
   29.225000000       0.000000000
   29.235000000       0.000000000
   29.245000000       0.000000000
   29.255000000       0.000000000
   29.265000000       0.000000000
   29.275000000       0.000000000
   29.285000000       0.000000000
   29.295000000       0.000000000
   29.305000000       0.000000000
   29.315000000       0.000000000
   29.325000000       0.000000000
   29.335000000       0.000000000
   29.345000000       0.000000000
   29.355000000       0.000000000
   29.365000000       0.000000000
   29.375000000       0.000000000
   29.385000000       0.000000000
   29.395000000       0.000000000
   29.405000000       0.000000000
   29.415000000       0.000000000
   29.425000000       0.000000000
   29.435000000       0.000000000
   29.445000000       0.000000000
   29.455000000       0.000000000
   29.465000000       0.000000000
   29.475000000       0.000000000
   29.485000000       0.000000000
   29.495000000       0.000000000
   29.505000000       0.000000000
   29.515000000       0.000000000
   29.525000000       0.000000000
   29.535000000       0.000000000
   29.545000000       0.000000000
   29.555000000       0.000000000
   29.565000000       0.000000000
   29.575000000       0.000000000
   29.585000000       0.000000000
   29.595000000       0.000000000
   29.605000000       0.000000000
   29.615000000       0.000000000
   29.625000000       0.000000000
   29.635000000       0.000000000
   29.645000000       0.000000000
   29.655000000       0.000000000
   29.665000000       0.000000000
   29.675000000       0.000000000
   29.685000000       0.000000000
   29.695000000       0.000000000
   29.705000000       0.000000000
   29.715000000       0.000000000
   29.725000000       0.000000000
   29.735000000       0.000000000
   29.745000000       0.000000000
   29.755000000       0.000000000
   29.765000000       0.000000000
   29.775000000       0.000000000
   29.785000000       0.000000000
   29.795000000       0.000000000
   29.805000000       0.000000000
   29.815000000       0.000000000
   29.825000000       0.000000000
   29.835000000       0.000000000
   29.845000000       0.000000000
   29.855000000       0.000000000
   29.865000000       0.000000000
   29.875000000       0.000000000
   29.885000000       0.000000000
   29.895000000       0.000000000
   29.905000000       0.000000000
   29.915000000       0.000000000
   29.925000000       0.000000000
   29.935000000       0.000000000
   29.945000000       0.000000000
   29.955000000       0.000000000
   29.965000000       0.000000000
   29.975000000       0.000000000
   29.985000000       0.000000000
   29.995000000       0.000000000
   30.005000000       0.000000000
   30.015000000       0.000000000
   30.025000000       0.000000000
   30.035000000       0.000000000
   30.045000000       0.000000000
   30.055000000       0.000000000
   30.065000000       0.000000000
   30.075000000       0.000000000
   30.085000000       0.000000000
   30.095000000       0.000000000
   30.105000000       0.000000000
   30.115000000       0.000000000
   30.125000000       0.000000000
   30.135000000       0.000000000
   30.145000000       0.000000000
   30.155000000       0.000000000
   30.165000000       0.000000000
   30.175000000       0.000000000
   30.185000000       0.000000000
   30.195000000       0.000000000
   30.205000000       0.000000000
   30.215000000       0.000000000
   30.225000000       0.000000000
   30.235000000       0.000000000
   30.245000000       0.000000000
   30.255000000       0.000000000
   30.265000000       0.000000000
   30.275000000       0.000000000
   30.285000000       0.000000000
   30.295000000       0.000000000
   30.305000000       0.000000000
   30.315000000       0.000000000
   30.325000000       0.000000000
   30.335000000       0.000000000
   30.345000000       0.000000000
   30.355000000       0.000000000
   30.365000000       0.000000000
   30.375000000       0.000000000
   30.385000000       0.000000000
   30.395000000       0.000000000
   30.405000000       0.000000000
   30.415000000       0.000000000
   30.425000000       0.000000000
   30.435000000       0.000000000
   30.445000000       0.000000000
   30.455000000       0.000000000
   30.465000000       0.000000000
   30.475000000       0.000000000
   30.485000000       0.000000000
   30.495000000       0.000000000
   30.505000000       0.000000000
   30.515000000       0.000000000
   30.525000000       0.000000000
   30.535000000       0.000000000
   30.545000000       0.000000000
   30.555000000       0.000000000
   30.565000000       0.000000000
   30.575000000       0.000000000
   30.585000000       0.000000000
   30.595000000       0.000000000
   30.605000000       0.000000000
   30.615000000       0.000000000
   30.625000000       0.000000000
   30.635000000       0.000000000
   30.645000000       0.000000000
   30.655000000       0.000000000
   30.665000000       0.000000000
   30.675000000       0.000000000
   30.685000000       0.000000000
   30.695000000       0.000000000
   30.705000000       0.000000000
   30.715000000       0.000000000
   30.725000000       0.000000000
   30.735000000       0.000000000
   30.745000000       0.000000000
   30.755000000       0.000000000
   30.765000000       0.000000000
   30.775000000       0.000000000
   30.785000000       0.000000000
   30.795000000       0.000000000
   30.805000000       0.000000000
   30.815000000       0.000000000
   30.825000000       0.000000000
   30.835000000       0.000000000
   30.845000000       0.000000000
   30.855000000       0.000000000
   30.865000000       0.000000000
   30.875000000       0.000000000
   30.885000000       0.000000000
   30.895000000       0.000000000
   30.905000000       0.000000000
   30.915000000       0.000000000
   30.925000000       0.000000000
   30.935000000       0.000000000
   30.945000000       0.000000000
   30.955000000       0.000000000
   30.965000000       0.000000000
   30.975000000       0.000000000
   30.985000000       0.000000000
   30.995000000       0.000000000
   31.005000000       0.000000000
   31.015000000       0.000000000
   31.025000000       0.000000000
   31.035000000       0.000000000
   31.045000000       0.000000000
   31.055000000       0.000000000
   31.065000000       0.000000000
   31.075000000       0.000000000
   31.085000000       0.000000000
   31.095000000       0.000000000
   31.105000000       0.000000000
   31.115000000       0.000000000
   31.125000000       0.000000000
   31.135000000       0.000000000
   31.145000000       0.000000000
   31.155000000       0.000000000
   31.165000000       0.000000000
   31.175000000       0.000000000
   31.185000000       0.000000000
   31.195000000       0.000000000
   31.205000000       0.000000000
   31.215000000       0.000000000
   31.225000000       0.000000000
   31.235000000       0.000000000
   31.245000000       0.000000000
   31.255000000       0.000000000
   31.265000000       0.000000000
   31.275000000       0.000000000
   31.285000000       0.000000000
   31.295000000       0.000000000
   31.305000000       0.000000000
   31.315000000       0.000000000
   31.325000000       0.000000000
   31.335000000       0.000000000
   31.345000000       0.000000000
   31.355000000       0.000000000
   31.365000000       0.000000000
   31.375000000       0.000000000
   31.385000000       0.000000000
   31.395000000       0.000000000
   31.405000000       0.000000000
   31.415000000       0.000000000
   31.425000000       0.000000000
   31.435000000       0.000000000
   31.445000000       0.000000000
   31.455000000       0.000000000
   31.465000000       0.000000000
   31.475000000       0.000000000
   31.485000000       0.000000000
   31.495000000       0.000000000
   31.505000000       0.000000000
   31.515000000       0.000000000
   31.525000000       0.000000000
   31.535000000       0.000000000
   31.545000000       0.000000000
   31.555000000       0.000000000
   31.565000000       0.000000000
   31.575000000       0.000000000
   31.585000000       0.000000000
   31.595000000       0.000000000
   31.605000000       0.000000000
   31.615000000       0.000000000
   31.625000000       0.000000000
   31.635000000       0.000000000
   31.645000000       0.000000000
   31.655000000       0.000000000
   31.665000000       0.000000000
   31.675000000       0.000000000
   31.685000000       0.000000000
   31.695000000       0.000000000
   31.705000000       0.000000000
   31.715000000       0.000000000
   31.725000000       0.000000000
   31.735000000       0.000000000
   31.745000000       0.000000000
   31.755000000       0.000000000
   31.765000000       0.000000000
   31.775000000       0.000000000
   31.785000000       0.000000000
   31.795000000       0.000000000
   31.805000000       0.000000000
   31.815000000       0.000000000
   31.825000000       0.000000000
   31.835000000       0.000000000
   31.845000000       0.000000000
   31.855000000       0.000000000
   31.865000000       0.000000000
   31.875000000       0.000000000
   31.885000000       0.000000000
